LAMMPS data file via write_data, version 30 Jul 2016, timestep = 100000000

921 atoms
16 atom types
540 bonds
14 bond types
386 angles
23 angle types
70 dihedrals
17 dihedral types

-7.6215000000000002e+00 7.3114999999999997e+00 xlo xhi
-9.2200000000000006e+00 9.4049999999999994e+00 ylo yhi
-1.5424457332822819e+01 1.8030457332822820e+01 zlo zhi

Masses

1 1.008
2 15.9994
3 1.008
4 1.008
5 1.008
6 12.011
7 12.011
8 12.011
9 14.007
10 15.9994
11 15.9994
12 30.974
13 26.982
14 15.9994
15 15.9994
16 1.008

Pair Coeffs # lj/charmm/coul/long

1 0.046 0.400014 0.046 0.400014
2 0.1521 3.15057 0.1521 3.15057
3 0.046 1.24726 0.046 1.24726
4 0.028 2.38761 0.028 2.38761
5 0.024 2.38761 0.024 2.38761
6 0.056 3.58141 0.01 3.38542
7 0.078 3.63487 0.01 3.38542
8 0.08 3.6705 0.01 3.38542
9 0.2 3.29632 0.2 3.29632
10 0.1 2.93997 0.1 2.93997
11 0.12 3.02906 0.12 3.02906
12 0.585 3.83086 0.585 3.83086
13 1.3298e-06 4.27124 1.3298e-06 4.27124
14 0.1554 3.16554 0.1554 3.16554
15 0.1554 3.16554 0.1554 3.16554
16 0.046 0.400014 0.046 0.400014

Bond Coeffs # harmonic

1 0 1.9
2 222.5 1.53
3 222.5 1.528
4 309 1.111
5 300 1.08
6 215 1.51
7 340 1.43
8 322 1.111
9 300 1.08
10 215 1.51
11 554.135 0.963
12 450 0.9572
13 580 1.48
14 270 1.6

Angle Coeffs # charmm

1 30 109.47 0 0
2 30 109.47 0 0
3 26.5 110.1 22.53 2.179
4 33.43 110.1 22.53 2.179
5 67.7 115 0 0
6 75.7 110.1 0 0
7 34.6 110.1 22.53 2.179
8 60 109.5 26 2.466
9 20 120 35 2.33
10 34.6 110.1 22.53 2.179
11 75.7 110.1 0 0
12 60 109.5 26 2.466
13 35.5 109 5.4 1.802
14 60 109.5 0 0
15 35.5 108.4 5.4 1.802
16 24 109.5 28 1.767
17 40 109.5 27 2.13
18 24 109.5 28 1.767
19 40 109.5 27 2.13
20 55 104.52 0 0
21 120 120 0 0
22 98.9 111.6 0 0
23 80 104.3 0 0

Dihedral Coeffs # charmm

1 0.26 3 0 1
2 0 3 0 1
3 0.23 3 0 1
4 0.1 3 0 1
5 1.2 1 180 1
6 0.1 2 180 0
7 0.1 3 180 0
8 0 3 0 1
9 0.26 3 0 1
10 0.23 3 0 1
11 0.19 3 0 1
12 0.19 3 0 1
13 0.16 3 0 1
14 0 3 0 1
15 0.16 3 0 1
16 0.19 3 0 1
17 0.19 3 0 1

Atoms # full

232 52 2 -8.3399999999999996e-01 -7.1234705597047583e+00 -7.3172954002912531e+00 -1.4058805674173010e+01 -27 94 1
424 116 2 -8.3399999999999996e-01 -5.6377070263358151e+00 -7.1272058800721716e+00 -1.1669140568769400e+01 -29 25 0
687 203 1 4.1699999999999998e-01 -4.4170707605313426e+00 -6.5365749419163635e+00 -1.3023655329545326e+01 86 -63 1
425 116 1 4.1699999999999998e-01 -6.1681116529309072e+00 -6.6444083839254624e+00 -1.1035206323494778e+01 -29 25 0
463 129 2 -8.3399999999999996e-01 -5.6612689030523056e+00 -5.0503099484073255e+00 -7.5315924334609026e+00 -52 57 1
796 240 2 -8.3399999999999996e-01 -7.4657987748047558e+00 -8.4755116677586440e+00 -9.5720593609298632e+00 42 -2 1
233 52 1 4.1699999999999998e-01 -6.6143822982263130e+00 -7.2115626440433269e+00 -1.3255075545421462e+01 -27 94 1
426 116 1 4.1699999999999998e-01 -5.1658580620958476e+00 -7.7532766099541846e+00 -1.1119887220193599e+01 -29 25 0
234 52 1 4.1699999999999998e-01 -6.4417895884631893e+00 -7.1054786728504151e+00 -1.4696569248178063e+01 -27 94 1
464 129 1 4.1699999999999998e-01 -6.4906177826335254e+00 -4.6755487933650466e+00 -7.8282016764004201e+00 -52 57 1
712 212 2 -8.3399999999999996e-01 -4.3332277005074840e+00 -9.1224762720425527e+00 -1.0419108051881382e+01 17 -67 1
302 75 1 4.1699999999999998e-01 -4.5163252180974958e+00 -6.3993979296991661e+00 -1.5036834466984450e+01 -48 -21 1
685 203 2 -8.3399999999999996e-01 -3.8992541696779486e+00 -5.9030851122428896e+00 -1.3520470583036733e+01 86 -63 1
582 168 1 4.1699999999999998e-01 -7.5884092757045076e+00 -4.8556116116388806e+00 -1.3171839479324175e+01 -35 -16 1
149 31 14 -1.0500000000000000e+00 -6.7889999999999997e+00 -6.5320000000000000e+00 -6.9127350597916504e-01 0 0 0
69 11 14 -1.0500000000000000e+00 -5.3220000000000001e+00 -4.5839999999999996e+00 3.6646271819321186e-01 0 0 0
148 31 13 1.5750000000000000e+00 -6.9219999999999997e+00 -8.3829999999999991e+00 -1.0899278783379920e+00 0 0 0
49 6 14 -1.0500000000000000e+00 -5.1589999999999998e+00 -8.3539999999999992e+00 3.6345778574813714e-01 0 0 0
150 31 15 -9.4999999999999996e-01 -5.4841400180951716e+00 -8.7468773362674206e+00 -2.2670405972813388e+00 0 0 0
48 6 13 1.5750000000000000e+00 -5.2750000000000004e+00 -6.4589999999999996e+00 5.6879483680999599e-01 0 0 0
270 64 1 4.1699999999999998e-01 -6.0944739606658391e+00 -4.7652876116714840e+00 -4.9252509112712470e+00 -49 42 0
462 128 1 4.1699999999999998e-01 -6.6967172814927389e+00 -8.7117443724944650e+00 -6.6849818931276985e+00 -137 -36 1
545 156 1 4.1699999999999998e-01 -7.3398211212834585e+00 -7.1720738712948995e+00 -5.1784661469877484e+00 -52 15 0
465 129 1 4.1699999999999998e-01 -5.9646458920387575e+00 -5.6720156577669592e+00 -6.8699693112102498e+00 -52 57 1
269 64 1 4.1699999999999998e-01 -6.0884876421353065e+00 -5.7440926129965293e+00 -3.7737576381633104e+00 -49 42 0
268 64 2 -8.3399999999999996e-01 -6.1430818516785051e+00 -5.7007879227245946e+00 -4.7284902660837655e+00 -49 42 0
50 6 15 -9.4999999999999996e-01 -6.9089985085968237e+00 -6.4508921710781006e+00 2.0721265426272240e+00 0 0 0
51 6 16 4.2499999999999999e-01 -6.6074752281998954e+00 -6.0079818261852544e+00 2.8759877329170500e+00 0 0 0
738 220 1 4.1699999999999998e-01 -3.9264015257139020e+00 -8.3421620561559564e+00 4.7602288759322597e+00 -49 11 -1
908 277 1 4.1699999999999998e-01 -6.1205617118258369e+00 -8.8081241546338500e+00 5.1538707498220724e+00 54 12 0
873 265 1 4.1699999999999998e-01 -4.5230910981104095e+00 -5.5483378708074440e+00 7.4829234500506736e+00 -25 -7 0
907 277 2 -8.3399999999999996e-01 -5.3166679490643478e+00 -8.9921078693790868e+00 5.6398483011711811e+00 54 12 0
609 177 1 4.1699999999999998e-01 -4.6402610907666020e+00 -4.9134167078320656e+00 3.6102388631111317e+00 -26 36 -1
872 265 1 4.1699999999999998e-01 -4.0781664563323385e+00 -6.3353865184609006e+00 6.3206566453499633e+00 -25 -7 0
871 265 2 -8.3399999999999996e-01 -4.6475623475369119e+00 -5.5964105945856035e+00 6.5349985337247816e+00 -25 -7 0
607 177 2 -8.3399999999999996e-01 -5.4941933762065807e+00 -4.6265626633620425e+00 3.9339094895357754e+00 -26 36 -1
621 181 1 4.1699999999999998e-01 -7.5517674067173068e+00 -7.7417769314083040e+00 3.1559568909191746e+00 29 -6 0
608 177 1 4.1699999999999998e-01 -5.3458557061388614e+00 -4.7093842868976887e+00 4.8759836781778887e+00 -26 36 -1
620 181 1 4.1699999999999998e-01 -7.3158270132516483e+00 -9.1450601125958837e+00 3.5426137247864062e+00 29 -6 0
511 145 2 -8.3399999999999996e-01 -6.4873377704341699e+00 -6.6775588881014967e+00 1.4164003173758680e+01 -61 -14 -1
793 239 2 -8.3399999999999996e-01 -5.9496685369975433e+00 -8.8197349322045309e+00 1.2672281765909656e+01 -30 -101 0
844 256 2 -8.3399999999999996e-01 -3.9833523332846816e+00 -6.4252535351193174e+00 1.2151137887166396e+01 27 -32 -1
875 266 1 4.1699999999999998e-01 -6.3625310654633616e+00 -4.9682080120735259e+00 1.5933878612915372e+01 9 -7 0
562 162 2 -8.3399999999999996e-01 -4.3571354096284098e+00 -8.6271954431980689e+00 1.0251059933921248e+01 40 45 -1
512 145 1 4.1699999999999998e-01 -6.4020329574403814e+00 -7.5546040959941472e+00 1.3790151794443052e+01 -61 -14 -1
301 75 2 -8.3399999999999996e-01 -5.0024334228461083e+00 -6.1100496603844912e+00 1.7645876548577903e+01 -48 -21 0
303 75 1 4.1699999999999998e-01 -4.2632430717120329e+00 -5.8237756894527433e+00 1.7109292139547911e+01 -48 -21 0
564 162 1 4.1699999999999998e-01 -4.2799986764747651e+00 -7.8221845936678065e+00 9.7389322506003069e+00 40 45 -1
845 256 1 4.1699999999999998e-01 -4.8578939361904405e+00 -6.6852699201568866e+00 1.2440643315413503e+01 27 -32 -1
794 239 1 4.1699999999999998e-01 -5.2282744873506157e+00 -8.8683525358420887e+00 1.2044971383068180e+01 -30 -101 0
513 145 1 4.1699999999999998e-01 -7.2652752744489479e+00 -6.6476489684446243e+00 1.4720955019285473e+01 -61 -14 -1
482 135 1 4.1699999999999998e-01 -4.5636963046605654e+00 -3.5237401258016554e+00 -1.1505677395693496e+01 -87 -31 0
849 257 1 4.1699999999999998e-01 -5.0419472991867202e+00 -1.8587926729925579e+00 -1.3941050847825039e+01 -115 6 1
440 121 1 4.1699999999999998e-01 -6.8107480299621015e+00 -2.1402427998947005e+00 -1.1115771821867176e+01 -27 101 1
848 257 1 4.1699999999999998e-01 -5.1118465026089277e+00 -3.1932916471087216e+00 -1.3533059129635998e+01 -115 6 1
847 257 2 -8.3399999999999996e-01 -5.5177244466161053e+00 -2.6461500870292261e+00 -1.4205519416998605e+01 -115 6 1
363 95 1 4.1699999999999998e-01 -7.2385051368678104e+00 -2.2147746683862355e+00 -7.5577683275668672e+00 -111 -72 0
439 121 2 -8.3399999999999996e-01 -6.1089206579904758e+00 -2.7441207136734107e+00 -1.1358692322376132e+01 -27 101 1
441 121 1 4.1699999999999998e-01 -6.5600676745053716e+00 -3.2044171339401109e+00 -1.2066434441868402e+01 -27 101 1
351 91 1 4.1699999999999998e-01 -4.1394508354810595e+00 -2.3455079874877960e-01 -1.0491400968641493e+01 -51 107 1
190 41 15 -9.4999999999999996e-01 -5.3191138523812889e+00 -1.0684473013858717e+00 -2.0562898086500638e+00 0 0 0
89 16 14 -1.0500000000000000e+00 -5.1379999999999999e+00 -9.1500000000000092e-01 6.2188197687337521e-01 0 0 0
188 41 13 1.5750000000000000e+00 -6.9009999999999998e+00 -8.1300000000000061e-01 -7.3033762789417800e-01 0 0 0
191 41 16 4.2499999999999999e-01 -5.6542861818885566e+00 -1.2564797269460506e+00 -2.9431042511618823e+00 0 0 0
68 11 13 1.5750000000000000e+00 -5.2270000000000003e+00 -2.8170000000000002e+00 9.4040481712392676e-01 0 0 0
168 36 13 1.5750000000000000e+00 -6.7430000000000003e+00 -4.4539999999999997e+00 -9.3667632310156357e-01 0 0 0
169 36 14 -1.0500000000000000e+00 -6.7830000000000004e+00 -2.6769999999999996e+00 -4.9795618467708991e-01 0 0 0
170 36 15 -9.4999999999999996e-01 -5.4432550662001891e+00 -4.2794359844216840e+00 -2.2905979812508921e+00 0 0 0
489 137 1 4.1699999999999998e-01 -5.7195549898774614e+00 -1.0932226881032800e+00 -6.4639998695311469e+00 21 -52 1
649 191 2 -8.3399999999999996e-01 -6.7959950036998711e+00 -2.3995938259004816e+00 -4.1366244490637047e+00 -30 33 0
171 36 16 4.2499999999999999e-01 -5.6774280991973232e+00 -3.5695525443817040e+00 -2.9039756072947309e+00 0 0 0
651 191 1 4.1699999999999998e-01 -6.8923894610270757e+00 -1.8323320842383390e+00 -4.9016341303547897e+00 -30 33 0
488 137 1 4.1699999999999998e-01 -4.4355325390594356e+00 -1.8285108063448430e+00 -6.0861951821132418e+00 21 -52 1
650 191 1 4.1699999999999998e-01 -7.0756017583826241e+00 -1.9262279623604925e+00 -3.3530059284503775e+00 -30 33 0
487 137 2 -8.3399999999999996e-01 -4.8069900430398205e+00 -9.5509304917315951e-01 -6.2102550694412564e+00 21 -52 1
361 95 2 -8.3399999999999996e-01 -7.3548565413828397e+00 -1.6284718964467446e+00 -6.8100882372644342e+00 -111 -72 0
70 11 15 -9.4999999999999996e-01 -6.6515234140805273e+00 -2.9752458368227730e+00 2.1504339620431985e+00 0 0 0
71 11 16 4.2499999999999999e-01 -6.3165822186917584e+00 -3.5956732739153141e+00 2.8134472072821275e+00 0 0 0
879 267 1 4.1699999999999998e-01 -5.4636529718864235e+00 -8.8460894115857158e-01 6.3386223473718779e+00 -47 43 -1
624 182 1 4.1699999999999998e-01 -5.7598800601941864e+00 -2.8228829167663889e+00 7.3074224237258179e+00 -47 -73 -1
904 276 2 -8.3399999999999996e-01 -4.6368213522601627e+00 -1.1114632137694063e+00 8.9770323196018822e+00 -83 -2 0
622 182 2 -8.3399999999999996e-01 -5.6420754348196960e+00 -2.6571169439795579e+00 6.3720064255237965e+00 -47 -73 -1
906 276 1 4.1699999999999998e-01 -4.4879033265970936e+00 -3.1970520641427669e-01 8.4601085280588073e+00 -83 -2 0
623 182 1 4.1699999999999998e-01 -4.7511917246777697e+00 -2.9669382530221302e+00 6.2089882727284547e+00 -47 -73 -1
877 267 2 -8.3399999999999996e-01 -5.2989883102713868e+00 -2.4962798520117957e-02 5.9511323627029959e+00 -47 43 -1
902 275 1 4.1699999999999998e-01 -7.5127046034448499e+00 -2.7743269453301220e+00 4.7317901333691381e+00 74 -31 0
473 132 1 4.1699999999999998e-01 -7.4966312542007678e+00 -3.7410650168958171e-02 9.3835211987402189e+00 -11 80 -1
889 271 2 -8.3399999999999996e-01 -5.8198228310836591e+00 -1.1713570022300868e+00 1.3088044216036256e+01 -7 46 0
819 247 1 4.1699999999999998e-01 -4.5496278915104229e+00 -3.2721725423694101e+00 1.5387952112400367e+01 -23 -76 -1
891 271 1 4.1699999999999998e-01 -5.4902069393777797e+00 -1.9898191592352834e+00 1.3459164303362886e+01 -7 46 0
874 266 2 -8.3399999999999996e-01 -6.9091734243054619e+00 -4.3615277957966345e+00 1.6433267674832496e+01 9 -7 0
817 247 2 -8.3399999999999996e-01 -4.9104423237148911e+00 -3.3992210733422539e+00 1.4510443881738514e+01 -23 -76 -1
890 271 1 4.1699999999999998e-01 -6.7674440625512293e+00 -1.2631452039545463e+00 1.3187126597416167e+01 -7 46 0
760 228 2 -8.3399999999999996e-01 -4.0242328052712404e+00 -3.2750955879932491e+00 1.7055696229219208e+01 54 -59 -1
700 208 2 -8.3399999999999996e-01 -3.9179915261191836e+00 -3.5670411004997442e+00 1.1337377088337739e+01 -19 56 0
905 276 1 4.1699999999999998e-01 -4.5439485697511639e+00 -7.6977402992556065e-01 9.8663981934391778e+00 -83 -2 0
472 132 2 -8.3399999999999996e-01 -7.4964901361174912e+00 -8.0915761145022280e-01 9.9498147435640938e+00 -11 80 -1
384 102 1 4.1699999999999998e-01 -4.8966148080340508e+00 -8.2620247418219606e-02 1.3993047263803607e+01 -54 -53 -1
702 208 1 4.1699999999999998e-01 -4.5648238621498454e+00 -2.9019933460187923e+00 1.1573086663284304e+01 -19 56 0
818 247 1 4.1699999999999998e-01 -4.3093582083249498e+00 -4.0138923630229923e+00 1.4089571292904722e+01 -23 -76 -1
596 173 1 4.1699999999999998e-01 -6.9925908266344079e+00 -1.4961361234194879e+00 1.7375580439701515e+01 -41 -85 -1
701 208 1 4.1699999999999998e-01 -4.3480827677293501e+00 -4.2902342078277895e+00 1.0881006851133439e+01 -19 56 0
761 228 1 4.1699999999999998e-01 -4.6007369234476450e+00 -3.0348592381905632e+00 1.7781123220012127e+01 54 -59 -1
876 266 1 4.1699999999999998e-01 -6.2042148836492386e+00 -4.2738568009629745e+00 1.7074863386320317e+01 9 -7 0
474 132 1 4.1699999999999998e-01 -6.5808243105093842e+00 -1.0857995222278376e+00 9.9143788733069904e+00 -11 80 -1
597 173 1 4.1699999999999998e-01 -7.5230668267127987e+00 -2.6509532782904870e+00 1.6544779347098920e+01 -41 -85 -1
350 91 1 4.1699999999999998e-01 -4.2031468410206658e+00 1.1023378798611230e+00 -9.8586969919815495e+00 -51 107 1
746 223 1 4.1699999999999998e-01 -6.3992936233410260e+00 2.6235659011525385e+00 -1.2712845680199177e+01 28 11 0
630 184 1 4.1699999999999998e-01 -4.7436045550499868e+00 3.8872996184232811e+00 -1.2132971630861141e+01 -17 7 1
322 82 2 -8.3399999999999996e-01 -6.7218857275689823e+00 1.7832266055032697e+00 -1.5215578171958793e+01 -50 49 1
628 184 2 -8.3399999999999996e-01 -4.6970381571133686e+00 3.1205492745108998e+00 -1.2704112147763247e+01 -17 7 1
629 184 1 4.1699999999999998e-01 -4.6972246489940748e+00 3.6163832453890361e+00 -1.3522942014100275e+01 -17 7 1
323 82 1 4.1699999999999998e-01 -5.9465189895329367e+00 1.2755997589365542e+00 -1.4976069421393323e+01 -50 49 1
349 91 2 -8.3399999999999996e-01 -4.7205878943801540e+00 3.0257340535050936e-01 -9.9528367552808028e+00 -51 107 1
899 274 1 4.1699999999999998e-01 -6.4984381684302557e+00 5.6083915001885565e-01 -9.5183818513908367e+00 -113 -33 1
898 274 2 -8.3399999999999996e-01 -7.4264645771483142e+00 7.9427336979368768e-01 -9.4958454478860332e+00 -113 -33 1
391 105 2 -8.3399999999999996e-01 -4.5184471615929489e+00 2.4494359184276426e-01 -1.5076743104939025e+01 -81 -90 1
745 223 2 -8.3399999999999996e-01 -7.2579203331263233e+00 2.4965705650921866e+00 -1.2309258820952044e+01 28 11 0
747 223 1 4.1699999999999998e-01 -7.0816908782601802e+00 1.6106732098993231e+00 -1.1992436830062490e+01 28 11 0
211 46 16 4.2499999999999999e-01 -5.4560430229860906e+00 2.4034582058063307e+00 -2.7880065286916746e+00 0 0 0
210 46 15 -9.4999999999999996e-01 -5.1579143729809083e+00 2.7597954915867415e+00 -1.9416042952068029e+00 0 0 0
208 46 13 1.5750000000000000e+00 -6.8200000000000003e+00 2.8970000000000002e+00 -6.7424555537994202e-01 0 0 0
109 21 14 -1.0500000000000000e+00 -5.1699999999999999e+00 2.7349999999999994e+00 8.1019107736706530e-01 0 0 0
189 41 14 -1.0500000000000000e+00 -6.8390000000000004e+00 1.0090000000000003e+00 -3.8677368385416067e-01 0 0 0
209 46 14 -1.0500000000000000e+00 -6.7060000000000004e+00 4.6940000000000008e+00 -3.1866188155720288e-01 0 0 0
88 16 13 1.5750000000000000e+00 -5.2820000000000000e+00 8.4600000000000009e-01 1.1166941877818743e+00 0 0 0
108 21 13 1.5750000000000000e+00 -5.2210000000000001e+00 4.6240000000000006e+00 1.1056761020930992e+00 0 0 0
529 151 2 -8.3399999999999996e-01 -4.2964318003511837e+00 4.6022876724194184e+00 -4.0928415489389547e+00 -31 -13 0
531 151 1 4.1699999999999998e-01 -4.4695009367158844e+00 4.5110999536269194e+00 -3.1557732825070683e+00 -31 -13 0
530 151 1 4.1699999999999998e-01 -5.1416389376515319e+00 4.7460155744600332e+00 -4.5185490698476567e+00 -31 -13 0
90 16 15 -9.4999999999999996e-01 -6.8653951755303053e+00 6.7519318439843268e-01 2.2077482118645868e+00 0 0 0
110 21 15 -9.4999999999999996e-01 -6.6878955233531228e+00 4.5355323540678292e+00 2.2897001157594268e+00 0 0 0
422 115 1 4.1699999999999998e-01 -5.4793114948907995e+00 2.1239351785199503e+00 4.2960297357616355e+00 -52 17 -1
111 21 16 4.2499999999999999e-01 -6.3056050903465053e+00 4.2788837316519501e+00 3.1391512706420492e+00 0 0 0
421 115 2 -8.3399999999999996e-01 -5.1696934712353428e+00 2.8422378002574149e+00 4.8478027203345988e+00 -52 17 -1
661 195 2 -8.3399999999999996e-01 -5.4938760776298698e+00 4.3337208505543874e+00 7.9602956852838176e+00 -85 9 -1
663 195 1 4.1699999999999998e-01 -4.7784087789303671e+00 4.1204412812881497e+00 7.3612095086521165e+00 -85 9 -1
662 195 1 4.1699999999999998e-01 -6.2197539496940779e+00 4.7353719482990915e+00 7.4827541880099808e+00 -85 9 -1
423 115 1 4.1699999999999998e-01 -4.2964353660762775e+00 2.9349769916134907e+00 4.4669156796956386e+00 -52 17 -1
387 103 1 4.1699999999999998e-01 -5.4828017870623240e+00 2.0749573515583943e+00 8.6409597443064605e+00 -41 9 0
385 103 2 -8.3399999999999996e-01 -4.6858125166190581e+00 1.5461040312072161e+00 8.6777519820642617e+00 -41 9 0
386 103 1 4.1699999999999998e-01 -3.9985439679514698e+00 2.1508776984500972e+00 8.3981891309080048e+00 -41 9 0
267 63 1 4.1699999999999998e-01 -6.0301518722734206e+00 4.3026307325204769e+00 5.3253282921215082e+00 102 12 0
878 267 1 4.1699999999999998e-01 -6.2258184955500813e+00 1.5461630279081362e-01 5.7931108341031390e+00 -47 43 -1
91 16 16 4.2499999999999999e-01 -6.6572490969154128e+00 4.6098765932240937e-01 3.1263040828451878e+00 0 0 0
748 224 2 -8.3399999999999996e-01 -6.3250545538361758e+00 1.4790846236051962e+00 1.1146572364731792e+01 43 -26 -1
504 142 1 4.1699999999999998e-01 -5.2128198566142991e+00 1.9283206287781312e+00 1.5274312881665413e+01 102 79 0
324 82 1 4.1699999999999998e-01 -6.5395169905457351e+00 1.8747734797610374e+00 1.7304068637977188e+01 -50 49 0
717 213 1 4.1699999999999998e-01 -7.0696848332934845e+00 2.8843211406804237e+00 1.5048562749094483e+01 45 4 -1
393 105 1 4.1699999999999998e-01 -4.0417347777694008e+00 9.8267736658949190e-01 1.7997708883739463e+01 -81 -90 0
382 102 2 -8.3399999999999996e-01 -4.5238917757382344e+00 6.6329740786064306e-01 1.4463102451977662e+01 -54 -53 -1
750 224 1 4.1699999999999998e-01 -5.5639531444050370e+00 1.1335003461964668e+00 1.0680133799759222e+01 43 -26 -1
503 142 1 4.1699999999999998e-01 -4.8120787620711276e+00 3.3391799716028387e+00 1.5572089098771944e+01 102 79 0
502 142 2 -8.3399999999999996e-01 -5.3799172632518744e+00 2.6388637826749264e+00 1.5893590793895530e+01 102 79 0
276 66 1 4.1699999999999998e-01 -4.6318908652512807e+00 4.0038785695538746e+00 1.1826708143300657e+01 -121 29 -1
749 224 1 4.1699999999999998e-01 -5.8488114502747726e+00 1.6042586069527811e+00 1.1967459557956236e+01 43 -26 -1
274 66 2 -8.3399999999999996e-01 -5.2437637840668154e+00 4.5307667426006883e+00 1.2340781820314543e+01 -121 29 -1
450 124 1 4.1699999999999998e-01 -6.4031027063557007e+00 3.7725573294714270e+00 1.7260004305883257e+01 -26 -41 -1
448 124 2 -8.3399999999999996e-01 -6.9211176590346435e+00 4.5541188074231922e+00 1.7067493411971235e+01 -26 -41 -1
275 66 1 4.1699999999999998e-01 -4.8261134834632413e+00 4.5563783484509734e+00 1.3201739687501210e+01 -121 29 -1
331 85 2 -8.3399999999999996e-01 -5.1234809570376765e+00 5.3025696405581098e+00 -1.1217696396058928e+01 10 54 0
333 85 1 4.1699999999999998e-01 -4.8540703990363845e+00 6.2134521252019486e+00 -1.1335773837124126e+01 10 54 0
332 85 1 4.1699999999999998e-01 -6.0155135540458984e+00 5.4689121867055999e+00 -1.0912972642627196e+01 10 54 0
784 236 2 -8.3399999999999996e-01 -6.7063431685543122e+00 8.3604452906864122e+00 -1.2454177160395867e+01 18 -49 0
615 179 1 4.1699999999999998e-01 -6.0234551962477569e+00 5.6334876614710332e+00 -8.0357772410794510e+00 -33 -26 1
785 236 1 4.1699999999999998e-01 -6.3113328245329567e+00 9.2053892226768195e+00 -1.2239069840438988e+01 18 -49 0
613 179 2 -8.3399999999999996e-01 -5.1224331510155929e+00 5.5120438786392558e+00 -8.3352081336094859e+00 -33 -26 1
614 179 1 4.1699999999999998e-01 -5.3185360936824200e+00 5.2228291239646065e+00 -9.2264145567440039e+00 -33 -26 1
786 236 1 4.1699999999999998e-01 -6.7176820532163957e+00 8.3673701357250234e+00 -1.3411357660277236e+01 18 -49 0
642 188 1 4.1699999999999998e-01 -6.8389454719674383e+00 6.6451894677206393e+00 -1.4993158859939292e+01 18 29 1
586 170 2 -8.3399999999999996e-01 -4.1938285825789414e+00 5.0783759887267834e+00 -1.4588073762375213e+01 15 -174 1
640 188 2 -8.3399999999999996e-01 -7.0086082985223674e+00 7.5797489679933765e+00 -1.5111673860228240e+01 18 29 1
588 170 1 4.1699999999999998e-01 -3.9631496761569833e+00 5.9992671737352445e+00 -1.4465680970688366e+01 15 -174 1
808 244 2 -8.3399999999999996e-01 -7.5143452400388950e+00 5.2049993408043953e+00 -7.1683852002168056e+00 -66 -36 1
461 128 1 4.1699999999999998e-01 -6.2169000814946642e+00 9.0404381226311710e+00 -7.7282673953133880e+00 -137 -37 1
713 212 1 4.1699999999999998e-01 -4.5932494617216602e+00 8.6416287496234840e+00 -1.0091239161704179e+01 17 -68 1
230 51 15 -9.4999999999999996e-01 -5.0658128308993930e+00 6.6079848397788670e+00 -1.9037555365277505e+00 0 0 0
228 51 13 1.5750000000000000e+00 -6.5549999999999997e+00 6.5209999999999955e+00 -7.8843298867012734e-01 0 0 0
229 51 14 -1.0500000000000000e+00 -6.7180000000000000e+00 8.2490000000000006e+00 -6.8250843645971671e-02 0 0 0
231 51 16 4.2499999999999999e-01 -5.2567457783233102e+00 6.9690213043108624e+00 -2.7804664339854188e+00 0 0 0
128 26 13 1.5750000000000000e+00 -5.1699999999999999e+00 8.3169999999999984e+00 1.2689440988466565e+00 0 0 0
129 26 14 -1.0500000000000000e+00 -5.1150000000000002e+00 6.3929999999999989e+00 9.2237522234817249e-01 0 0 0
820 248 2 -8.3399999999999996e-01 -5.9655830213478893e+00 7.6875050714264948e+00 -4.2308009851798527e+00 20 -41 1
822 248 1 4.1699999999999998e-01 -6.5184708426313795e+00 6.9152380822017552e+00 -4.1118390625185253e+00 20 -41 1
821 248 1 4.1699999999999998e-01 -6.3612025434897213e+00 8.0663886596850478e+00 -5.0158236631827915e+00 20 -41 1
778 234 2 -8.3399999999999996e-01 -6.9426202461707138e+00 4.9472965202103918e+00 -4.5417415174891040e+00 93 33 1
460 128 2 -8.3399999999999996e-01 -6.4320202866201459e+00 9.0001485191562143e+00 -6.7963565843198239e+00 -137 -37 1
151 31 16 4.2499999999999999e-01 -5.7042809481182264e+00 9.2057666099907518e+00 -2.9257338857583743e+00 0 -1 0
644 189 1 4.1699999999999998e-01 -4.0521962141606664e+00 8.5071329890615406e+00 -4.4946857037521344e+00 -36 -34 1
779 234 1 4.1699999999999998e-01 -6.7475494328248038e+00 5.3764562828387295e+00 -5.3748732874974632e+00 93 33 1
130 26 15 -9.4999999999999996e-01 -6.5780782145277579e+00 8.1858408432022660e+00 2.6275410904301708e+00 0 0 0
131 26 16 4.2499999999999999e-01 -6.5486421142356992e+00 7.2733891925617460e+00 2.9438294551408468e+00 0 0 0
265 63 2 -8.3399999999999996e-01 -6.5052861245057345e+00 5.0895583383012504e+00 5.5922292504348228e+00 102 12 0
286 70 2 -8.3399999999999996e-01 -4.7799807004498298e+00 6.9758453204791540e+00 4.6838515200845379e+00 -63 -76 0
287 70 1 4.1699999999999998e-01 -4.3898479215969743e+00 7.3667276377194089e+00 3.9019725638362530e+00 -63 -76 0
288 70 1 4.1699999999999998e-01 -4.0202077505165175e+00 6.6368753813027528e+00 5.1572508583449057e+00 -63 -76 0
266 63 1 4.1699999999999998e-01 -5.9629159761120496e+00 5.8066748659427763e+00 5.2638522641286158e+00 102 12 0
658 194 2 -8.3399999999999996e-01 -4.6157847247624533e+00 6.9344752494837518e+00 9.5179695126742594e+00 -31 -15 0
909 277 1 4.1699999999999998e-01 -5.2336171424227649e+00 8.6795377270037601e+00 5.6186506829186271e+00 54 11 0
563 162 1 4.1699999999999998e-01 -4.5902618921656488e+00 9.3013974748456469e+00 9.6370884414111089e+00 40 44 -1
659 194 1 4.1699999999999998e-01 -5.5381062114100557e+00 6.7932021453957407e+00 9.7315198508266576e+00 -31 -15 0
306 76 1 4.1699999999999998e-01 -3.9383697152988777e+00 8.4036898586564508e+00 1.7723371903589225e+01 34 22 0
601 175 2 -8.3399999999999996e-01 -6.9899148903934654e+00 5.9952911687438633e+00 1.1097589091599747e+01 -61 17 -1
602 175 1 4.1699999999999998e-01 -6.2408456693385332e+00 5.4049854768031409e+00 1.1179249996393562e+01 -61 17 -1
831 251 1 4.1699999999999998e-01 -5.3589268074170686e+00 6.6711577273007201e+00 1.3793620549741856e+01 -11 9 0
603 175 1 4.1699999999999998e-01 -6.9273256809591066e+00 6.4715039078988017e+00 1.1925618673630758e+01 -61 17 -1
305 76 1 4.1699999999999998e-01 -4.3615389469797821e+00 9.2015807826089695e+00 1.6549018618770461e+01 34 22 0
304 76 2 -8.3399999999999996e-01 -4.7307270550401821e+00 8.7201054346694615e+00 1.7289422131586697e+01 34 22 0
829 251 2 -8.3399999999999996e-01 -6.1282286321366346e+00 7.1020459630337935e+00 1.3421108720041005e+01 -11 9 0
830 251 1 4.1699999999999998e-01 -6.7083689061017679e+00 6.9514733854100452e+00 1.4167482672086656e+01 -11 9 0
528 150 1 4.1699999999999998e-01 -5.2305217503770578e+00 5.2456200455995212e+00 1.5436832629833226e+01 110 49 -1
660 194 1 4.1699999999999998e-01 -4.2628085015819730e+00 7.1191357718634745e+00 1.0388403069518120e+01 -31 -15 0
526 150 2 -8.3399999999999996e-01 -4.3977446956153514e+00 5.2108647786480251e+00 1.4966150305327009e+01 110 49 -1
795 239 1 4.1699999999999998e-01 -6.0635861917304990e+00 8.8945095164367398e+00 1.2943926279045957e+01 -30 -102 0
641 188 1 4.1699999999999998e-01 -6.3244261052992536e+00 7.7613161460398796e+00 1.7698863492307503e+01 18 29 0
686 203 1 4.1699999999999998e-01 -3.6183399476676534e+00 -5.2409833446054179e+00 -1.2888803857638162e+01 86 -63 1
308 77 1 4.1699999999999998e-01 -1.0094181360790193e+00 -8.2052486635274970e+00 -1.2552635853969132e+01 -72 -19 0
626 183 1 4.1699999999999998e-01 -6.4247104625951401e-01 -6.6739999264736394e+00 -8.4556488202237432e+00 -32 103 0
359 94 1 4.1699999999999998e-01 -2.8665765423548111e+00 -5.7381410383241214e+00 -1.0310682759029142e+01 -19 -55 0
360 94 1 4.1699999999999998e-01 -1.4303184756252199e+00 -5.5845713281422649e+00 -1.0233804581057043e+01 -19 -55 0
627 183 1 4.1699999999999998e-01 -4.7592649091872818e-01 -7.1586166741843673e+00 -7.1220289266033561e+00 -32 103 0
358 94 2 -8.3399999999999996e-01 -2.0861096951568010e+00 -6.2809685492462659e+00 -1.0199139312666285e+01 -19 -55 0
307 77 2 -8.3399999999999996e-01 -1.7584319987841974e+00 -8.4345364021791394e+00 -1.2002476480305551e+01 -72 -19 0
309 77 1 4.1699999999999998e-01 -1.9536132413861003e+00 -7.7647668311596822e+00 -1.1347032373534287e+01 -72 -19 0
45 5 14 -1.0500000000000000e+00 -2.2719999999999994e+00 -8.3059999999999992e+00 2.7130652380473030e-01 0 0 0
140 29 13 1.5750000000000000e+00 -8.3100000000000041e-01 -8.4450000000000003e+00 -1.2772353346803396e+00 0 0 0
65 10 14 -1.0500000000000000e+00 -2.1580000000000004e+00 -4.6790000000000003e+00 2.3524733434262757e-01 0 0 0
164 35 13 1.5750000000000000e+00 -3.6940000000000004e+00 -4.5949999999999998e+00 -1.0969393873970574e+00 0 0 0
146 30 15 -9.4999999999999996e-01 -2.3694515841051125e+00 -8.4707927890434433e+00 -2.4077169657486053e+00 0 0 0
145 30 14 -1.0500000000000000e+00 -3.7759999999999998e+00 -6.3630000000000004e+00 -8.2649546643635752e-01 0 0 0
141 29 14 -1.0500000000000000e+00 -7.5499999999999989e-01 -6.5810000000000004e+00 -8.2148724567962361e-01 0 0 0
144 30 13 1.5750000000000000e+00 -3.8580000000000001e+00 -8.2660000000000000e+00 -9.9377003975372524e-01 0 0 0
160 34 13 1.5750000000000000e+00 -6.7300000000000448e-01 -4.6150000000000002e+00 -1.0759048602153793e+00 0 0 0
44 5 13 1.5750000000000000e+00 -2.1150000000000002e+00 -6.5389999999999997e+00 5.5677510701314503e-01 0 0 0
505 143 2 -8.3399999999999996e-01 -1.6143951549048694e+00 -7.5167974480740618e+00 -5.4537132359181317e+00 -59 -9 0
486 136 1 4.1699999999999998e-01 -1.2354608340181406e+00 -5.1867567143712909e+00 -5.6506864785724371e+00 5 52 1
147 30 16 4.2499999999999999e-01 -2.7517483960395932e+00 -8.7599515689598348e+00 -3.2468649670751066e+00 0 0 0
167 35 16 4.2499999999999999e-01 -2.4147106861669405e+00 -5.0988600936160511e+00 -3.1244967301132274e+00 0 0 0
507 143 1 4.1699999999999998e-01 -1.7794023788614757e+00 -7.7294774732677709e+00 -4.5350743702788723e+00 -59 -9 0
506 143 1 4.1699999999999998e-01 -2.3432796462322729e+00 -7.9570150202199388e+00 -5.8909705969354409e+00 -59 -9 0
42 4 15 -9.4999999999999996e-01 -9.0738732370562047e-01 -6.6828613346590844e+00 1.9185160629510456e+00 0 0 0
43 4 16 4.2499999999999999e-01 -1.1509107344195852e+00 -7.5398830684646461e+00 2.2954692899947879e+00 0 0 0
46 5 15 -9.4999999999999996e-01 -3.6933409544478875e+00 -6.4441161954294159e+00 1.8678848026835979e+00 0 0 0
736 220 2 -8.3399999999999996e-01 -3.1374778064836741e+00 -8.1460455249131609e+00 4.2548551879140035e+00 -49 11 -1
708 210 1 4.1699999999999998e-01 -1.3605262124591357e+00 -7.3631761537769789e+00 6.6976064603786618e+00 16 -99 0
47 5 16 4.2499999999999999e-01 -3.4790078816448249e+00 -6.8041262774425739e+00 2.7390938603251698e+00 0 0 0
707 210 1 4.1699999999999998e-01 -1.7445776559002448e+00 -5.8988199536591264e+00 6.8904811245089803e+00 16 -99 0
737 220 1 4.1699999999999998e-01 -2.8316965231161593e+00 -7.7617050859531904e+00 5.0765045370576232e+00 -49 11 -1