LAMMPS data file via write_data, version 30 Jul 2016, timestep = 134000000

5284 atoms
14 atom types
3220 bonds
12 bond types
1651 angles
21 angle types
72 dihedrals
19 dihedral types

-1.6268000000000001e+01 1.6291000000000000e+01 xlo xhi
-1.9317499999999999e+01 1.9724499999999999e+01 ylo yhi
-2.1168699119722053e+01 2.1173699119722055e+01 zlo zhi

Masses

1 1.008
2 10.811
3 14.0067
4 15.9994
5 1.008
6 1.008
7 1.008
8 12.011
9 12.011
10 12.011
11 14.007
12 15.9994
13 15.9994
14 30.974

Pair Coeffs # lj/charmm/coul/long

1 0.046 0.400014 0.046 0.400014
2 0.094909 3.453 0.094909 3.453
3 0.144837 3.365 0.144837 3.365
4 0.1521 3.15057 0.1521 3.15057
5 0.046 1.24726 0.046 1.24726
6 0.028 2.38761 0.028 2.38761
7 0.024 2.38761 0.024 2.38761
8 0.056 3.58141 0.01 3.38542
9 0.078 3.63487 0.01 3.38542
10 0.08 3.6705 0.01 3.38542
11 0.2 3.29632 0.2 3.29632
12 0.12 3.02906 0.12 3.02906
13 0.1 2.93997 0.1 2.93997
14 0.585 3.83086 0.585 3.83086

Bond Coeffs # harmonic

1 222.5 1.53
2 222.5 1.528
3 309 1.111
4 300 1.08
5 215 1.51
6 340 1.43
7 322 1.111
8 300 1.08
9 215 1.51
10 450 0.9572
11 580 1.48
12 270 1.6

Angle Coeffs # charmm

1 26.5 110.1 22.53 2.179
2 33.43 110.1 22.53 2.179
3 67.7 115 0 0
4 75.7 110.1 0 0
5 34.6 110.1 22.53 2.179
6 60 109.5 26 2.466
7 20 120 35 2.33
8 34.6 110.1 22.53 2.179
9 75.7 110.1 0 0
10 60 109.5 26 2.466
11 35.5 109 5.4 1.802
12 60 109.5 0 0
13 35.5 108.4 5.4 1.802
14 24 109.5 28 1.767
15 40 109.5 27 2.13
16 24 109.5 28 1.767
17 40 109.5 27 2.13
18 55 104.52 0 0
19 120 120 0 0
20 98.9 111.6 0 0
21 80 104.3 0 0

Dihedral Coeffs # charmm

1 0.26 3 0 1
2 0.407 2 0 1
3 0.241 1 180 0
4 0.23 3 0 1
5 0.1 3 0 1
6 1.2 1 180 1
7 0.1 2 180 0
8 0.1 3 180 0
9 0 3 0 1
10 0.26 3 0 1
11 0.23 3 0 1
12 0.19 3 0 1
13 0.19 3 0 1
14 0.16 3 0 1
15 0 3 0 1
16 0.16 3 0 1
17 0.19 3 0 1
18 3.3 1 180 1
19 -0.4 3 180 0

Atoms # full

3247 1384 1 4.1699999999999998e-01 -1.4690184146817488e+01 -1.8854406956004841e+01 -1.4368861034398229e+01 -1 11 1
4571 1826 4 -8.3399999999999996e-01 -1.0673526383437743e+01 -1.3476005245971987e+01 -1.9787863468515202e+01 -8 12 1
2496 1134 1 4.1699999999999998e-01 -9.3626884673300310e+00 -1.0491372004360487e+01 -2.0517079743602544e+01 19 16 1
2031 979 1 4.1699999999999998e-01 -1.4274464030779916e+01 -1.7585279920077600e+01 -1.0794974004441716e+01 -17 24 1
3245 1384 4 -8.3399999999999996e-01 -1.4765690217746544e+01 -1.8351121755456600e+01 -1.5179593872344725e+01 -1 11 1
1333 746 1 4.1699999999999998e-01 -1.1770650618092660e+01 -1.6742766419038027e+01 -1.3104686355366827e+01 22 -23 0
1321 742 1 4.1699999999999998e-01 -1.1780296958711187e+01 -1.0538089501893474e+01 -1.3475833859667503e+01 -19 -19 0
808 571 1 4.1699999999999998e-01 -1.2078370532994127e+01 -1.0882556122453105e+01 -1.5884504682592937e+01 42 -15 0
3855 1587 1 4.1699999999999998e-01 -1.3160336088591137e+01 -1.4812865498200162e+01 -1.8392620961806998e+01 24 -15 1
2497 1134 1 4.1699999999999998e-01 -8.6795838333955651e+00 -1.0997294297088629e+01 -1.9375510394616676e+01 19 16 1
1302 736 1 4.1699999999999998e-01 -1.5338158589481047e+01 -1.9164836750020395e+01 -1.7990511304951930e+01 16 21 0
4097 1668 4 -8.3399999999999996e-01 -1.3867865795653893e+01 -1.5103689169878644e+01 -1.1738911135090214e+01 21 18 0
4515 1807 1 4.1699999999999998e-01 -1.4428540154693311e+01 -1.2712551218092813e+01 -1.9636977444109043e+01 49 -24 0
2694 1200 1 4.1699999999999998e-01 -1.1519170534630492e+01 -1.8034885156677500e+01 -1.9059853561608083e+01 11 31 1
1331 746 4 -8.3399999999999996e-01 -1.2452326386029352e+01 -1.7414048236780520e+01 -1.3074173913758960e+01 22 -23 0
4026 1644 1 4.1699999999999998e-01 -1.3587447457247611e+01 -1.3711061001923165e+01 -1.2886457826257375e+01 -5 4 0
4770 1892 1 4.1699999999999998e-01 -1.1938892716235351e+01 -1.4966985998659919e+01 -1.6146594164871228e+01 21 12 0
1269 725 1 4.1699999999999998e-01 -9.1364703175678557e+00 -1.4989553659643120e+01 -1.0590091998094307e+01 23 39 1
4514 1807 4 -8.3399999999999996e-01 -1.4871283655775430e+01 -1.2758503963620695e+01 -1.8789537295230559e+01 49 -24 0
2187 1031 1 4.1699999999999998e-01 -9.5943053774901497e+00 -1.6489620722754452e+01 -1.2437695120544115e+01 1 1 0
3559 1488 1 4.1699999999999998e-01 -1.1619757920504572e+01 -1.9147172994150797e+01 -1.6103505495533760e+01 36 -21 1
2186 1031 4 -8.3399999999999996e-01 -9.9274731155928855e+00 -1.5603864294872881e+01 -1.2581466997295617e+01 1 1 0
1149 685 1 4.1699999999999998e-01 -1.3549506281729460e+01 -1.6456771936513423e+01 -1.6754455639500371e+01 40 -9 0
4691 1866 4 -8.3399999999999996e-01 -1.1123587660092413e+01 -1.7938204198146508e+01 -1.5231305009989121e+01 28 -2 1
4692 1866 1 4.1699999999999998e-01 -1.1189700229096823e+01 -1.7004882712062312e+01 -1.5029375260760336e+01 28 -2 1
4025 1644 4 -8.3399999999999996e-01 -1.3319242966794361e+01 -1.3049047813605561e+01 -1.3523693932774853e+01 -5 4 0
2693 1200 4 -8.3399999999999996e-01 -1.1085340551223904e+01 -1.7181718214947832e+01 -1.9048465594597985e+01 11 31 1
807 571 1 4.1699999999999998e-01 -1.2563669516051201e+01 -1.2128000730446086e+01 -1.6506248059729341e+01 42 -15 0
4027 1644 1 4.1699999999999998e-01 -1.2873553495116703e+01 -1.3569009833542646e+01 -1.4192475308471364e+01 -5 4 0
4573 1826 1 4.1699999999999998e-01 -1.0661994945564743e+01 -1.3292258651179086e+01 -2.0727229938572240e+01 -8 12 1
2897 1268 4 -8.3399999999999996e-01 -9.1220597034459665e+00 -1.5033515475473589e+01 -1.8104784771490998e+01 -6 4 0
1079 662 4 -8.3399999999999996e-01 -8.1897485088910216e+00 -1.0448822229004110e+01 -1.7698374689062032e+01 -55 -10 1
4099 1668 1 4.1699999999999998e-01 -1.3770353577206333e+01 -1.5908826143520603e+01 -1.2247343338919938e+01 21 18 0
880 595 1 4.1699999999999998e-01 -1.3750951224022076e+01 -1.9199501581778581e+01 -2.1093771140218447e+01 -5 23 1
3104 1337 4 -8.3399999999999996e-01 -9.0158005212844365e+00 -1.8592720997805749e+01 -1.9911232407358732e+01 16 -7 0
557 488 4 -8.3399999999999996e-01 -1.0142942925330541e+01 -1.3191341063188846e+01 -1.4513475753591667e+01 41 3 0
1357 754 1 4.1699999999999998e-01 -1.3636413518623748e+01 -1.1473566838448958e+01 -1.2832943553449299e+01 27 28 0
3957 1621 1 4.1699999999999998e-01 -1.4331303785495786e+01 -1.4451050829858248e+01 -1.6287376769524684e+01 34 16 0
879 595 1 4.1699999999999998e-01 -1.2792383645280649e+01 -1.8176591370415611e+01 -2.0850237644988162e+01 -5 23 1
3471 1459 1 4.1699999999999998e-01 -1.5968302718957649e+01 -1.7099363802613770e+01 -1.5043743067738280e+01 78 29 0
2188 1031 1 4.1699999999999998e-01 -9.9511881420088546e+00 -1.5506182407452590e+01 -1.3533412953178797e+01 1 1 0
3159 1355 1 4.1699999999999998e-01 -8.5493007253847111e+00 -1.8689056337360793e+01 -1.1916091406635548e+01 -19 -16 1
2695 1200 1 4.1699999999999998e-01 -1.0176070369756236e+01 -1.7388213322533083e+01 -1.9264855606588622e+01 11 31 1
3956 1621 4 -8.3399999999999996e-01 -1.4497835605296798e+01 -1.3540600921917138e+01 -1.6043274380082035e+01 34 16 0
1332 746 1 4.1699999999999998e-01 -1.2408602899804222e+01 -1.7707949718826498e+01 -1.3984124700192428e+01 22 -23 0
559 488 1 4.1699999999999998e-01 -1.0587022042464811e+01 -1.2402735039104362e+01 -1.4825144117330748e+01 41 3 0
3854 1587 4 -8.3399999999999996e-01 -1.2487926494800691e+01 -1.4353055891395808e+01 -1.7889930312815359e+01 24 -15 1
681 529 1 4.1699999999999998e-01 -1.3000177197281536e+01 -1.5550567239491455e+01 -2.1129161639137148e+01 52 1 0
2899 1268 1 4.1699999999999998e-01 -9.8850846430659232e+00 -1.4528100703613669e+01 -1.8385117442818970e+01 -6 4 0
682 529 1 4.1699999999999998e-01 -1.2316659049251497e+01 -1.6376572454342263e+01 -1.9991596479825677e+01 52 1 0
4181 1696 4 -8.3399999999999996e-01 -1.5915712702072485e+01 -1.0542623949538026e+01 -1.7249430563505701e+01 31 10 0
4771 1892 1 4.1699999999999998e-01 -1.1109078868624561e+01 -1.4507857717503065e+01 -1.4994557801457113e+01 21 12 0
806 571 4 -8.3399999999999996e-01 -1.2324871780708795e+01 -1.1231328489662923e+01 -1.6741175237292346e+01 42 -15 0
558 488 1 4.1699999999999998e-01 -9.4954716528689058e+00 -1.2660463253067091e+01 -1.4049580388044518e+01 41 3 0
1150 685 1 4.1699999999999998e-01 -1.4511444873760141e+01 -1.7096337682708235e+01 -1.7610869405158812e+01 40 -9 0
1148 685 4 -8.3399999999999996e-01 -1.4377952881572613e+01 -1.6248785388316506e+01 -1.7186505399519589e+01 40 -9 0
1355 754 4 -8.3399999999999996e-01 -1.3815518551996437e+01 -1.0635793018952482e+01 -1.2405968402700678e+01 27 28 0
4183 1696 1 4.1699999999999998e-01 -1.5621391073052086e+01 -1.1194491774875896e+01 -1.7885596336720401e+01 31 10 0
4572 1826 1 4.1699999999999998e-01 -1.0060733221583632e+01 -1.2789902067470171e+01 -1.9523316401847882e+01 -8 12 1
4516 1807 1 4.1699999999999998e-01 -1.5760141343879107e+01 -1.2812234906511344e+01 -1.9140660742011953e+01 49 -24 0
3958 1621 1 4.1699999999999998e-01 -1.4155310245730393e+01 -1.3050730576519975e+01 -1.6790925046409299e+01 34 16 0
4693 1866 1 4.1699999999999998e-01 -1.0271390170784034e+01 -1.7884155075109987e+01 -1.5663841698738416e+01 28 -2 1
3856 1587 1 4.1699999999999998e-01 -1.1730214288205467e+01 -1.4271067631832823e+01 -1.8469079551153285e+01 24 -15 1
4769 1892 4 -8.3399999999999996e-01 -1.1747735832125107e+01 -1.5179765848178818e+01 -1.5233090577555320e+01 21 12 0
1356 754 1 4.1699999999999998e-01 -1.4672733790758103e+01 -1.0921102607744794e+01 -1.2089707963046948e+01 27 28 0
1734 880 1 4.1699999999999998e-01 -1.3386350693462651e+01 -1.0888618215948508e+01 -2.0607756592216838e+01 -6 17 0
1319 742 4 -8.3399999999999996e-01 -1.1049969052766045e+01 -1.0290977954882965e+01 -1.4043121568249532e+01 -19 -19 0
953 620 4 -8.3399999999999996e-01 -1.1965928198261167e+01 -9.7058709226166986e+00 -1.0807844840798731e+01 50 27 0
4098 1668 1 4.1699999999999998e-01 -1.4476027748202247e+01 -1.5498816973327793e+01 -1.1114189892903891e+01 21 18 0
1301 736 4 -8.3399999999999996e-01 -1.4699744607187169e+01 -1.8583442426105627e+01 -1.8403617530106807e+01 16 21 0
3158 1355 4 -8.3399999999999996e-01 -9.3250750726463139e+00 -1.8364457458862759e+01 -1.2373323371798680e+01 -19 -16 1
2511 1139 1 4.1699999999999998e-01 -1.2644178587739400e+01 -1.0694893553704528e+01 -1.8403191463694860e+01 43 38 0
954 620 1 4.1699999999999998e-01 -1.1202825370313462e+01 -1.0155706496302683e+01 -1.1170562971025090e+01 50 27 0
3160 1355 1 4.1699999999999998e-01 -9.5455408133989419e+00 -1.9128521209560894e+01 -1.2906107466839982e+01 -19 -16 1
1303 736 1 4.1699999999999998e-01 -1.4300085487113842e+01 -1.9196032425572632e+01 -1.9021085811411222e+01 16 21 0
2495 1134 4 -8.3399999999999996e-01 -8.9933719104543890e+00 -1.1322726381591520e+01 -2.0219263734469077e+01 19 16 1
1738 881 1 4.1699999999999998e-01 -1.6148091122528733e+01 -1.3879939389074691e+01 -1.6975768466990907e+01 30 26 1
1320 742 1 4.1699999999999998e-01 -1.0482763032455681e+01 -9.9369824604368251e+00 -1.3358115732499311e+01 -19 -19 0
2032 979 1 4.1699999999999998e-01 -1.3258002809667447e+01 -1.8253216035340841e+01 -1.1710726031888740e+01 -17 24 1
2510 1139 4 -8.3399999999999996e-01 -1.2567897839544960e+01 -1.0055604762506201e+01 -1.9111545762716336e+01 43 38 0
5129 2012 4 -8.3399999999999996e-01 -8.7066669004088943e+00 -1.5672806287544859e+01 -2.0676724982359246e+01 12 43 1
3664 1523 1 4.1699999999999998e-01 -9.0596425838739467e+00 -1.6217582583811481e+01 -1.6764996191759206e+01 21 6 1
878 595 4 -8.3399999999999996e-01 -1.2995501519775267e+01 -1.9053401969570032e+01 -2.0524376894477186e+01 -5 23 1
5130 2012 1 4.1699999999999998e-01 -8.7954495832446487e+00 -1.5436907500329141e+01 -1.9753269490968865e+01 12 43 1
680 529 4 -8.3399999999999996e-01 -1.3132713303694722e+01 -1.6232611827059138e+01 -2.0470743506008848e+01 52 1 0
955 620 1 4.1699999999999998e-01 -1.2633316498073434e+01 -1.0007996419289324e+01 -1.1423946217977939e+01 50 27 0
2898 1268 1 4.1699999999999998e-01 -8.4654100682311721e+00 -1.4349429314922684e+01 -1.7974122468179772e+01 -6 4 0
3662 1523 4 -8.3399999999999996e-01 -8.8126432131876840e+00 -1.6886314083095286e+01 -1.6126197087692390e+01 21 6 1
3246 1384 1 4.1699999999999998e-01 -1.3977511473068548e+01 -1.8597263697854640e+01 -1.5663784372630241e+01 -1 11 1
4543 1816 1 4.1699999999999998e-01 -1.5206550047845464e+01 -9.8372656832068657e+00 -1.5272437521912750e+01 -11 44 0
2030 979 4 -8.3399999999999996e-01 -1.3868162102454953e+01 -1.8428724740337312e+01 -1.0994358289285660e+01 -17 24 1
3663 1523 1 4.1699999999999998e-01 -8.1770898391616278e+00 -1.6391205794518569e+01 -1.5609290296393631e+01 21 6 1
5131 2012 1 4.1699999999999998e-01 -9.1332707589151028e+00 -1.4955556027197915e+01 -2.1145563922464191e+01 12 43 1
3106 1337 1 4.1699999999999998e-01 -8.4619211190281867e+00 -1.8152085122562138e+01 -2.0555688088481610e+01 16 -7 0
1270 725 1 4.1699999999999998e-01 -9.9101957157240328e+00 -1.3691916507131218e+01 -1.0632309289921690e+01 23 39 1
2933 1280 4 -8.3399999999999996e-01 -9.0191894982835770e+00 -9.6032037907530494e+00 -1.1475417852930866e+01 -3 14 1
2617 1174 1 4.1699999999999998e-01 -1.2418589752178733e+01 -1.4327960723603482e+01 -1.0799195916814538e+01 22 16 0
32 1 2 1.0500000000000000e+00 -1.4863000000000000e+01 -1.8699000000000002e+01 1.0034464746411231e-04 0 0 0
33 2 3 -1.0500000000000000e+00 -1.6114999999999998e+01 -1.7975999999999999e+01 1.0034464746411231e-04 0 0 0
34 3 2 1.0500000000000000e+00 -1.6114999999999998e+01 -1.6530000000000001e+01 1.0034464746411231e-04 0 0 0
35 4 3 -1.0500000000000000e+00 -1.4863000000000000e+01 -1.5807000000000000e+01 1.0034464746411231e-04 0 0 0
36 5 2 1.0500000000000000e+00 -1.2359000000000000e+01 -1.8699000000000002e+01 1.0034464746411231e-04 0 0 0
37 6 3 -1.0500000000000000e+00 -1.3611000000000001e+01 -1.7975999999999999e+01 1.0034464746411231e-04 0 0 0
38 7 2 1.0500000000000000e+00 -1.3611000000000001e+01 -1.6530000000000001e+01 1.0034464746411231e-04 0 0 0
39 8 3 -1.0500000000000000e+00 -1.2359000000000000e+01 -1.5807000000000000e+01 1.0034464746411231e-04 0 0 0
40 9 2 1.0500000000000000e+00 -9.8539999999999992e+00 -1.8699000000000002e+01 1.0034464746411231e-04 0 0 0
41 10 3 -1.0500000000000000e+00 -1.1106000000000002e+01 -1.7975999999999999e+01 1.0034464746411231e-04 0 0 0
42 11 2 1.0500000000000000e+00 -1.1106000000000002e+01 -1.6530000000000001e+01 1.0034464746411231e-04 0 0 0
43 12 3 -1.0500000000000000e+00 -9.8539999999999992e+00 -1.5807000000000000e+01 1.0034464746411231e-04 0 0 0
45 14 3 -1.0500000000000000e+00 -8.6020000000000003e+00 -1.7975999999999999e+01 1.0034464746411231e-04 0 0 0
46 15 2 1.0500000000000000e+00 -8.6020000000000003e+00 -1.6530000000000001e+01 1.0034464746411231e-04 0 0 0
84 53 2 1.0500000000000000e+00 -1.4863000000000000e+01 -1.4361000000000001e+01 1.0034464746411231e-04 0 0 0
85 54 3 -1.0500000000000000e+00 -1.6114999999999998e+01 -1.3638000000000000e+01 1.0034464746411231e-04 0 0 0
86 55 2 1.0500000000000000e+00 -1.6114999999999998e+01 -1.2192000000000000e+01 1.0034464746411231e-04 0 0 0
87 56 3 -1.0500000000000000e+00 -1.4863000000000000e+01 -1.1469000000000001e+01 1.0034464746411231e-04 0 0 0
88 57 2 1.0500000000000000e+00 -1.2359000000000000e+01 -1.4361000000000001e+01 1.0034464746411231e-04 0 0 0
89 58 3 -1.0500000000000000e+00 -1.3611000000000001e+01 -1.3638000000000000e+01 1.0034464746411231e-04 0 0 0
90 59 2 1.0500000000000000e+00 -1.3611000000000001e+01 -1.2192000000000000e+01 1.0034464746411231e-04 0 0 0
91 60 3 -1.0500000000000000e+00 -1.2359000000000000e+01 -1.1469000000000001e+01 1.0034464746411231e-04 0 0 0
92 61 2 1.0500000000000000e+00 -9.8539999999999992e+00 -1.4361000000000001e+01 1.0034464746411231e-04 0 0 0
93 62 3 -1.0500000000000000e+00 -1.1106000000000002e+01 -1.3638000000000000e+01 1.0034464746411231e-04 0 0 0
94 63 2 1.0500000000000000e+00 -1.1106000000000002e+01 -1.2192000000000000e+01 1.0034464746411231e-04 0 0 0
95 64 3 -1.0500000000000000e+00 -9.8539999999999992e+00 -1.1469000000000001e+01 1.0034464746411231e-04 0 0 0
97 66 3 -1.0500000000000000e+00 -8.6020000000000003e+00 -1.3638000000000000e+01 1.0034464746411231e-04 0 0 0
98 67 2 1.0500000000000000e+00 -8.6020000000000003e+00 -1.2192000000000000e+01 1.0034464746411231e-04 0 0 0
136 105 2 1.0500000000000000e+00 -1.4863000000000000e+01 -1.0023000000000000e+01 1.0034464746411231e-04 0 0 0
140 109 2 1.0500000000000000e+00 -1.2359000000000000e+01 -1.0023000000000000e+01 1.0034464746411231e-04 0 0 0
144 113 2 1.0500000000000000e+00 -9.8539999999999992e+00 -1.0023000000000000e+01 1.0034464746411231e-04 0 0 0
2010 972 1 4.1699999999999998e-01 -1.4161567086283990e+01 -1.7974341824275495e+01 -8.6536023864025342e+00 22 -5 1
3205 1370 1 4.1699999999999998e-01 -1.4568340085007055e+01 -1.0114789520526854e+01 -8.8112351810170022e+00 -5 -8 0
5056 1987 1 4.1699999999999998e-01 -1.0802303514995543e+01 -1.8500128351994984e+01 -9.5798296364669131e+00 47 20 0
4186 1697 1 4.1699999999999998e-01 -1.5557715458255894e+01 -1.9317134110146252e+01 -3.1261383838448893e+00 3 13 0
4058 1655 4 -8.3399999999999996e-01 -1.0038660796472007e+01 -1.0955855396534371e+01 -5.0530905606806442e+00 26 18 0
3991 1632 1 4.1699999999999998e-01 -1.0800951208764964e+01 -1.4743464309629539e+01 -6.7712467793907560e+00 7 10 1
918 608 1 4.1699999999999998e-01 -1.3748661728291188e+01 -1.3704960474333475e+01 -5.7906369840728154e+00 11 29 0
1613 840 4 -8.3399999999999996e-01 -9.9098609199802059e+00 -1.8211677959611507e+01 -3.3986104186016846e+00 24 10 1
2011 972 1 4.1699999999999998e-01 -1.3437158070807442e+01 -1.7845979352331103e+01 -7.3622219089143464e+00 22 -5 1
594 500 1 4.1699999999999998e-01 -8.5196735027028616e+00 -1.2210635040024606e+01 -7.9115689045331958e+00 13 -14 0
1268 725 4 -8.3399999999999996e-01 -9.0429523206765410e+00 -1.4048752406109038e+01 -1.0440482525117437e+01 23 39 1
1207 704 1 4.1699999999999998e-01 -8.5492142944905929e+00 -1.5469330605315694e+01 -7.6549478488658735e+00 19 20 0
3828 1578 1 4.1699999999999998e-01 -9.9673717043580137e+00 -1.7475325724034860e+01 -6.6852754351240886e+00 8 5 1
1925 944 4 -8.3399999999999996e-01 -1.5760752088463306e+01 -1.6160713424250599e+01 -3.2450690551507222e+00 -9 28 0
4060 1655 1 4.1699999999999998e-01 -9.4505665739135036e+00 -1.0881077392002609e+01 -4.3015367921673224e+00 26 18 0
1092 666 1 4.1699999999999998e-01 -1.2833990548676754e+01 -1.7977776765729825e+01 -4.2880399012680357e+00 16 19 0
2125 1010 1 4.1699999999999998e-01 -9.3510278410678946e+00 -1.4555058040891977e+01 -3.4561987675006876e+00 28 -9 1
2530 1145 1 4.1699999999999998e-01 -1.3944180223896797e+01 -1.2552230582885631e+01 -7.7906158070457323e+00 4 10 1
3827 1578 4 -8.3399999999999996e-01 -1.0231202288481919e+01 -1.8328185835566195e+01 -6.3399283753868794e+00 8 5 1
1926 944 1 4.1699999999999998e-01 -1.4914867651813413e+01 -1.5753285381708711e+01 -3.0587449369950264e+00 -9 28 0
2355 1087 1 4.1699999999999998e-01 -8.7498779827779476e+00 -1.3039492836415219e+01 -5.8480996027149885e+00 4 2 0
917 608 4 -8.3399999999999996e-01 -1.4366075759527176e+01 -1.4300840329020181e+01 -5.3664028377209796e+00 11 29 0
2124 1010 1 4.1699999999999998e-01 -9.4574178129422570e+00 -1.6064781178473375e+01 -3.4160514558984154e+00 28 -9 1
5054 1987 4 -8.3399999999999996e-01 -1.1363305545367782e+01 -1.8839343135876604e+01 -8.8823459234988107e+00 47 20 0
4646 1851 4 -8.3399999999999996e-01 -1.3280916445928609e+01 -1.9038737872007101e+01 -5.8243347865920558e+00 47 -25 0
537 481 1 4.1699999999999998e-01 -1.2173401516032076e+01 -1.1944622343608062e+01 -5.3507481142821085e+00 -16 19 0
536 481 4 -8.3399999999999996e-01 -1.2442630330906530e+01 -1.2346360232790591e+01 -6.1768278019316885e+00 -16 19 0
2123 1010 4 -8.3399999999999996e-01 -9.9863039014207224e+00 -1.5270306422360235e+01 -3.4890168628825577e+00 28 -9 1
1502 803 4 -8.3399999999999996e-01 -1.6054856234763292e+01 -1.6392999496507276e+01 -1.0474352378125495e+01 -26 16 0
3829 1578 1 4.1699999999999998e-01 -1.1000099702641711e+01 -1.8577943347643775e+01 -6.8524443093927818e+00 8 5 1
2356 1087 1 4.1699999999999998e-01 -8.1590589086328098e+00 -1.1815974363509174e+01 -5.6503820127791613e+00 4 2 0
4348 1751 1 4.1699999999999998e-01 -1.2349915715123332e+01 -1.5271007747400869e+01 -2.8554266011153651e+00 6 13 1
931 612 1 4.1699999999999998e-01 -1.3070166623963754e+01 -1.5681517324139552e+01 -7.4130322095591925e+00 6 14 1
4347 1751 1 4.1699999999999998e-01 -1.3192725075842517e+01 -1.4095881106046484e+01 -2.4304665567705683e+00 6 13 1
5154 2020 1 4.1699999999999998e-01 -1.4739139945719641e+01 -9.7978911100808279e+00 -4.5776944469663121e+00 26 16 1
3990 1632 1 4.1699999999999998e-01 -1.0187425674426951e+01 -1.4885902325391395e+01 -5.4162257485459993e+00 7 10 1
1614 840 1 4.1699999999999998e-01 -1.0134584078126370e+01 -1.8368888238747331e+01 -4.3157173615213011e+00 24 10 1
2529 1145 1 4.1699999999999998e-01 -1.5206955709458219e+01 -1.2734464606681875e+01 -8.6394137933706592e+00 4 10 1
4059 1655 1 4.1699999999999998e-01 -1.0707246262498533e+01 -1.0285685629987285e+01 -4.9113139015519458e+00 26 18 0
2009 972 4 -8.3399999999999996e-01 -1.3944146169657559e+01 -1.7324887207060460e+01 -7.9848694766977193e+00 22 -5 1
5155 2020 1 4.1699999999999998e-01 -1.5369981613626905e+01 -1.0099944773439390e+01 -3.2322187935303432e+00 26 16 1
1615 840 1 4.1699999999999998e-01 -1.0786527273559241e+01 -1.8184709912059503e+01 -3.0152407114448145e+00 24 10 1
1271 726 4 -8.3399999999999996e-01 -1.5424708366594807e+01 -1.5003747108720567e+01 -7.9504720238697892e+00 -6 22 1
2616 1174 1 4.1699999999999998e-01 -1.2422482982135765e+01 -1.3233104371770899e+01 -9.8427248206408073e+00 22 16 0
930 612 1 4.1699999999999998e-01 -1.2123721834104884e+01 -1.5103470105839749e+01 -8.3873805807427004e+00 6 14 1
2615 1174 4 -8.3399999999999996e-01 -1.1923048749003708e+01 -1.4026012444805275e+01 -1.0037918821469605e+01 22 16 0
4346 1751 4 -8.3399999999999996e-01 -1.3029795165211933e+01 -1.4676989799821921e+01 -3.1734636840202626e+00 6 13 1
919 608 1 4.1699999999999998e-01 -1.3767985467287861e+01 -1.4490769534570459e+01 -4.6435670221115330e+00 11 29 0
2214 1040 1 4.1699999999999998e-01 -9.4218091345400339e+00 -1.0131872925603467e+01 -8.3539057724817773e+00 38 10 0
2528 1145 4 -8.3399999999999996e-01 -1.4457685532724478e+01 -1.2156580364524160e+01 -8.4949230703654166e+00 4 10 1
538 481 1 4.1699999999999998e-01 -1.1732945841219813e+01 -1.1978706111767732e+01 -6.7035463131356003e+00 -16 19 0
1091 666 4 -8.3399999999999996e-01 -1.2721341053154797e+01 -1.7897131705258932e+01 -3.3408802423345598e+00 16 19 0
1093 666 1 4.1699999999999998e-01 -1.3365633209187779e+01 -1.8564589001007892e+01 -3.1050297173803791e+00 16 19 0
3989 1632 4 -8.3399999999999996e-01 -9.9540634931963403e+00 -1.4704964989096391e+01 -6.3267774238882790e+00 7 10 1
929 612 4 -8.3399999999999996e-01 -1.2234685688704140e+01 -1.5215369881120944e+01 -7.4432031959672180e+00 6 14 1
5055 1987 1 4.1699999999999998e-01 -1.2194114905753761e+01 -1.9062261858531404e+01 -9.3022385944257326e+00 47 20 0
2934 1280 1 4.1699999999999998e-01 -8.9325157560035890e+00 -9.6519363080945890e+00 -1.0523357664407678e+01 -3 14 1
1272 726 1 4.1699999999999998e-01 -1.5012845645268783e+01 -1.5843741988426956e+01 -8.1529923600867953e+00 -6 22 1
1273 726 1 4.1699999999999998e-01 -1.5443258198076343e+01 -1.5136761698323362e+01 -7.0027022245154313e+00 -6 22 1
595 500 1 4.1699999999999998e-01 -9.1362880914474296e+00 -1.2672813711784906e+01 -9.2443321947395187e+00 13 -14 0
593 500 4 -8.3399999999999996e-01 -8.9669231534814529e+00 -1.1903684827858980e+01 -8.7002620765447034e+00 13 -14 0
5153 2020 4 -8.3399999999999996e-01 -1.4684456503858970e+01 -9.5769672043233687e+00 -3.6479070315788213e+00 26 16 1
3601 1502 1 4.1699999999999998e-01 -1.5920798009507637e+01 -9.9644165784967580e+00 4.4736372543706473e+00 22 13 0
3534 1480 1 4.1699999999999998e-01 -1.3465304095624168e+01 -1.8300292820162376e+01 8.4036909984864430e+00 14 18 -1
3600 1502 1 4.1699999999999998e-01 -1.4506677651816045e+01 -9.8162586495317967e+00 4.6403629697307096e+00 22 13 0
5125 2010 1 4.1699999999999998e-01 -1.5708196545761426e+01 -1.6640411745383744e+01 4.2765506490741565e+00 7 16 -1
2287 1064 1 4.1699999999999998e-01 -1.4396672108525292e+01 -1.2024486822623533e+01 1.0278091494959334e+01 33 -12 -1
3837 1581 1 4.1699999999999998e-01 -8.4744630821695033e+00 -1.6314316412565688e+01 3.9865221671784639e+00 4 -6 0
2738 1215 4 -8.3399999999999996e-01 -1.0288231501370417e+01 -1.3297527833004215e+01 9.9977027893119264e+00 41 -7 0
4724 1877 4 -8.3399999999999996e-01 -9.3506574839255236e+00 -1.0931117478793709e+01 5.9578828798617138e+00 68 11 0
4380 1762 1 4.1699999999999998e-01 -1.0160055132271738e+01 -1.2800822796853923e+01 3.1359085484802094e+00 -12 -4 -1
4381 1762 1 4.1699999999999998e-01 -1.0988008564446199e+01 -1.4002681916361249e+01 2.9811991685524681e+00 -12 -4 -1
3357 1421 1 4.1699999999999998e-01 -1.0623480769669754e+01 -1.7734783224988650e+01 4.2165728116663637e+00 65 24 -1
3358 1421 1 4.1699999999999998e-01 -1.1790173168255311e+01 -1.8325573322930182e+01 3.5415624359122155e+00 65 24 -1
1238 715 4 -8.3399999999999996e-01 -9.9337098499728143e+00 -1.0551301701800968e+01 3.3195107212549786e+00 31 27 -1
5276 2061 4 -8.3399999999999996e-01 -1.2098132256565956e+01 -1.4917336886196034e+01 8.6316953682124336e+00 26 23 0
2321 1076 4 -8.3399999999999996e-01 -1.1461136201663395e+01 -1.3035149289887860e+01 6.2570794587038030e+00 -15 3 -1
5110 2005 1 4.1699999999999998e-01 -1.2258485327619436e+01 -1.5848425587572375e+01 4.3490144054928201e+00 -5 -7 0
3356 1421 4 -8.3399999999999996e-01 -1.1425962754512881e+01 -1.7469602570200905e+01 3.7671816015557056e+00 65 24 -1
3619 1508 1 4.1699999999999998e-01 -9.4896571487674297e+00 -1.6017896563852112e+01 7.3910578100272062e+00 41 31 0
5128 2011 1 4.1699999999999998e-01 -1.1210440720191771e+01 -1.6580429264306535e+01 9.9884005941822629e+00 13 17 -1
5083 1996 1 4.1699999999999998e-01 -1.3445467825948354e+01 -1.6602871871279248e+01 5.9683291696658962e+00 -25 -7 0
4379 1762 4 -8.3399999999999996e-01 -1.0089983083549733e+01 -1.3753340961806224e+01 3.1994076403233507e+00 -12 -4 -1
2967 1291 1 4.1699999999999998e-01 -1.5206703463244425e+01 -1.1640394399260140e+01 3.0598591081763757e+00 -6 27 0
2323 1076 1 4.1699999999999998e-01 -1.0651405347520608e+01 -1.2544169328132377e+01 6.1174078877330658e+00 -15 3 -1
835 580 1 4.1699999999999998e-01 -1.4028966806369406e+01 -1.4221819365473623e+01 3.9986878504349690e+00 31 14 0
2322 1076 1 4.1699999999999998e-01 -1.2022335171376103e+01 -1.2277162872352168e+01 6.4206256078491819e+00 -15 3 -1
5051 1986 4 -8.3399999999999996e-01 -1.4322855804532283e+01 -1.8428370339413910e+01 3.9847051020505155e+00 -5 -10 -1
2286 1064 1 4.1699999999999998e-01 -1.5067945273448764e+01 -1.1553571886713897e+01 9.0277596339868076e+00 33 -12 -1
3522 1476 1 4.1699999999999998e-01 -1.1548581336286407e+01 -9.8547407966737559e+00 8.2164488765605732e+00 40 -20 0
5082 1996 1 4.1699999999999998e-01 -1.4069042215749290e+01 -1.6372789554222091e+01 7.3185432581634373e+00 -25 -7 0
2968 1291 1 4.1699999999999998e-01 -1.4004545846294608e+01 -1.2425047552548808e+01 3.2899557065250242e+00 -6 27 0
5081 1996 4 -8.3399999999999996e-01 -1.3640781840534775e+01 -1.7048362291697568e+01 6.7927560535721767e+00 -25 -7 0
5278 2061 1 4.1699999999999998e-01 -1.2926534030269730e+01 -1.4517831308692079e+01 8.3663935595536039e+00 26 23 0
1110 672 1 4.1699999999999998e-01 -1.4976677618013532e+01 -1.4735750610546312e+01 8.2178501855668991e+00 8 8 -1
4576 1827 1 4.1699999999999998e-01 -1.1516791097868794e+01 -1.8468237879449106e+01 7.1080421612878339e+00 -23 -23 -1
1109 672 4 -8.3399999999999996e-01 -1.4605211101263880e+01 -1.4137618897485078e+01 7.5693729877083236e+00 8 8 -1
833 580 4 -8.3399999999999996e-01 -1.4464172262950353e+01 -1.4271435611930928e+01 3.1475564133910403e+00 31 14 0
5052 1986 1 4.1699999999999998e-01 -1.3389597238364397e+01 -1.8218138238007146e+01 3.9521006643844707e+00 -5 -10 -1
834 580 1 4.1699999999999998e-01 -1.5153933464504101e+01 -1.4903028468714666e+01 3.3514153925067269e+00 31 14 0
3521 1476 4 -8.3399999999999996e-01 -1.2420567685225592e+01 -1.0097299791191759e+01 7.9049246913837266e+00 40 -20 0
5277 2061 1 4.1699999999999998e-01 -1.1509753847384594e+01 -1.4454070843484010e+01 8.0354926244983709e+00 26 23 0
5203 2036 1 4.1699999999999998e-01 -9.5944914726530595e+00 -9.9920678846219531e+00 9.0554600079738172e+00 21 7 0
5053 1986 1 4.1699999999999998e-01 -1.4327504068369823e+01 -1.8896030269280555e+01 4.8199053653826027e+00 -5 -10 -1
1111 672 1 4.1699999999999998e-01 -1.5363920763390924e+01 -1.3708541291909956e+01 7.1737765033051595e+00 8 8 -1
5108 2005 4 -8.3399999999999996e-01 -1.2688747603826128e+01 -1.5243920567208834e+01 4.9537536765470271e+00 -5 -7 0
5109 2005 1 4.1699999999999998e-01 -1.2032325616801135e+01 -1.4730132792907064e+01 5.4242684176393929e+00 -5 -7 0
3617 1508 4 -8.3399999999999996e-01 -8.6291767363712104e+00 -1.6430430407013230e+01 7.4660350309603380e+00 41 31 0
3523 1476 1 4.1699999999999998e-01 -1.2860286167205748e+01 -1.0399029704014335e+01 8.6998388225251873e+00 40 -20 0
2785 1230 1 4.1699999999999998e-01 -8.9035678847567326e+00 -1.8532967811419319e+01 9.5900301375277870e+00 19 15 -1
4104 1670 1 4.1699999999999998e-01 -1.5830659794644617e+01 -1.6253463490777211e+01 1.0130330596208058e+01 0 34 0
1239 715 1 4.1699999999999998e-01 -1.0229675769736023e+01 -1.0747108640263241e+01 4.2085323802772372e+00 31 27 -1
1240 715 1 4.1699999999999998e-01 -9.9974458857601629e+00 -9.5964499804182957e+00 3.3402134526656369e+00 31 27 -1
2285 1064 4 -8.3399999999999996e-01 -1.4952464254687314e+01 -1.1318331039724697e+01 9.9484262399947667e+00 33 -12 -1
3838 1581 1 4.1699999999999998e-01 -8.7565483537328905e+00 -1.4885557980748356e+01 3.7208544406627837e+00 4 -6 0
2784 1230 1 4.1699999999999998e-01 -8.2191496384750806e+00 -1.7276033233811884e+01 1.0063034420078960e+01 19 15 -1
2739 1215 1 4.1699999999999998e-01 -1.0960441306642728e+01 -1.3949569122132829e+01 9.7996816557819884e+00 41 -7 0
4574 1827 4 -8.3399999999999996e-01 -1.0829875934153629e+01 -1.9108875847420652e+01 7.2923375224145666e+00 -23 -23 -1
4725 1877 1 4.1699999999999998e-01 -8.5813774738249986e+00 -1.1321271531495265e+01 5.5428698649439809e+00 68 11 0