Created by charmm2lammps v1.8.1 on Mon Dec 19 00:14:35 MSK 2016

        5364  atoms
        3300  bonds
        1807  angles
         398  dihedrals
           2  impropers

          15  atom types
          16  bond types
          30  angle types
          71  dihedral types
           1  improper types

     -16.176       16.383 xlo xhi
    -19.1605      19.8815 ylo yhi
    -22.1565      22.3695 zlo zhi

Masses

       1      1.008  # HT
       2     10.811  # BBNS
       3    14.0067  # NBNS
       4    15.9994  # OT
       5      1.008  # HAL1
       6      1.008  # HAL2
       7      1.008  # HAL3
       8      1.008  # HEL1
       9     12.011  # CL
      10     12.011  # CTL1
      11     12.011  # CTL2
      12     12.011  # CTL3
      13     12.011  # CEL1
      14    15.9994  # OBL
      15    15.9994  # OSL

Pair Coeffs

       1      0.046  0.4000135      0.046  0.4000135  # HT
       2   0.094909   3.452999   0.094909   3.452999  # BBNS
       3   0.144837   3.364996   0.144837   3.364996  # NBNS
       4     0.1521   3.150574     0.1521   3.150574  # OT
       5      0.022   2.351973      0.022   2.351973  # HAL1
       6      0.028   2.387609      0.028   2.387609  # HAL2
       7      0.024   2.387609      0.024   2.387609  # HAL3
       8      0.031   2.227247      0.031   2.227247  # HEL1
       9       0.07   3.563595       0.07   3.563595  # CL
      10       0.02   4.053589       0.01   3.385415  # CTL1
      11      0.056   3.581413       0.01   3.385415  # CTL2
      12      0.078   3.634867       0.01   3.385415  # CTL3
      13      0.068   3.723957      0.068   3.723957  # CEL1
      14       0.12   3.029056       0.12   2.494516  # OBL
      15        0.1   2.939966        0.1   2.939966  # OSL

Atoms

       1       0    12     -0.27       9.425      20.289       18.12  # CTL3
       2       0     7      0.09       9.984      21.144      17.684  # HAL3
       3       0     7      0.09       9.996      19.905      18.993  # HAL3
       4       0     7      0.09       8.445      20.662      18.486  # HAL3
       5       0    10      0.04       9.225      19.194      17.054  # CTL1
       6       0     5      0.09        8.65      18.349      17.488  # HAL1
       7       0    15     -0.34      10.507      18.755      16.599  # OSL
       8       0     9      0.63      11.189      18.003      17.457  # CL
       9       0    14     -0.52      10.757      17.512      18.492  # OBL
      10       0    11     -0.08      12.632      17.869      16.974  # CTL2
      11       0     6      0.09      12.976       18.89      16.701  # HAL2
      12       0     6      0.09      13.255      17.507       17.82  # HAL2
      13       0    11     -0.05       8.406      19.731      15.863  # CTL2
      14       0     6      0.09        8.94      20.599      15.421  # HAL2
      15       0     6      0.09       8.331      18.943      15.083  # HAL2
      16       0    15     -0.34        7.13       20.17      16.364  # OSL
      17       0     9      0.63       6.075       19.39      16.129  # CL
      18       0    14     -0.52       5.998      18.518      15.284  # OBL
      19       0    11     -0.08       4.977       19.77      17.127  # CTL2
      20       0     6      0.09       5.437      19.942      18.123  # HAL2
      21       0     6      0.09       4.522      20.723      16.782  # HAL2
      22       0    11     -0.18      12.758      16.922       15.76  # CTL2
      23       0     6      0.09      12.052      17.232       14.96  # HAL2
      24       0     6      0.09      13.788      17.021      15.356  # HAL2
      25       0    11     -0.18      12.525      15.461      16.156  # CTL2
      26       0     6      0.09      13.247      15.184      16.953  # HAL2
      27       0     6      0.09        11.5      15.357      16.573  # HAL2
      28       0    11     -0.18      12.674      14.471      14.994  # CTL2
      29       0     6      0.09      11.955      14.741      14.191  # HAL2
      30       0     6      0.09      13.704      14.521      14.582  # HAL2
      31       0    11     -0.18      12.382      13.027      15.427  # CTL2
      32       0     6      0.09      13.113      12.705      16.198  # HAL2
      33       0     6      0.09      11.374      12.999      15.894  # HAL2
      34       0    11     -0.18      12.405      12.049      14.245  # CTL2
      35       0     6      0.09      11.775      12.483       13.44  # HAL2
      36       0     6      0.09      13.439      11.972      13.846  # HAL2
      37       0    11     -0.18      11.894      10.654      14.644  # CTL2
      38       0     6      0.09      12.663      10.167      15.282  # HAL2
      39       0     6      0.09      10.989      10.772      15.277  # HAL2
      40       0    13     -0.15      11.575       9.806      13.438  # CEL1
      41       0     8      0.15      11.844      10.244      12.465  # HEL1
      42       0    13     -0.15       11.04       8.581      13.466  # CEL1
      43       0     8      0.15      10.822       8.071      12.516  # HEL1
      44       0    11     -0.18      10.657       7.798      14.707  # CTL2
      45       0     6      0.09       11.53       7.211      15.064  # HAL2
      46       0     6      0.09      10.347       8.461      15.544  # HAL2
      47       0    11     -0.18       9.523       6.806      14.397  # CTL2
      48       0     6      0.09       8.591       7.363      14.165  # HAL2
      49       0     6      0.09       9.787       6.212      13.496  # HAL2
      50       0    11     -0.18       9.259        5.82      15.548  # CTL2
      51       0     6      0.09      10.221       5.349      15.841  # HAL2
      52       0     6      0.09       8.872       6.375      16.429  # HAL2
      53       0    11     -0.18       8.272        4.72      15.134  # CTL2
      54       0     6      0.09       7.292       5.177       14.88  # HAL2
      55       0     6      0.09       8.658       4.232      14.214  # HAL2
      56       0    11     -0.18       8.061       3.636      16.201  # CTL2
      57       0     6      0.09       7.479        2.81      15.739  # HAL2
      58       0     6      0.09       9.041       3.218      16.516  # HAL2
      59       0    11     -0.18       7.281       4.132       17.43  # CTL2
      60       0     6      0.09       7.869       4.895      17.983  # HAL2
      61       0     6      0.09       6.358       4.643       17.08  # HAL2
      62       0    11     -0.18        6.87       2.989      18.366  # CTL2
      63       0     6      0.09       6.278       2.249      17.785  # HAL2
      64       0     6      0.09       7.775       2.461      18.736  # HAL2
      65       0    12     -0.27       6.039       3.466      19.554  # CTL3
      66       0     7      0.09       5.094       3.942      19.216  # HAL3
      67       0     7      0.09       5.778       2.613      20.215  # HAL3
      68       0     7      0.09       6.599       4.214      20.156  # HAL3
      69       0    11     -0.18       3.899      18.675       17.24  # CTL2
      70       0     6      0.09       3.098      19.068      17.901  # HAL2
      71       0     6      0.09       3.451      18.467      16.244  # HAL2
      72       0    11     -0.18       4.416      17.366      17.864  # CTL2
      73       0     6      0.09       5.237       16.96      17.236  # HAL2
      74       0     6      0.09       4.836      17.569      18.872  # HAL2
      75       0    11     -0.18       3.334      16.282      17.987  # CTL2
      76       0     6      0.09       2.624      16.558      18.796  # HAL2
      77       0     6      0.09       2.773      16.214      17.031  # HAL2
      78       0    11     -0.18       3.942      14.907      18.285  # CTL2
      79       0     6      0.09       4.673      14.671      17.483  # HAL2
      80       0     6      0.09       4.492      14.941      19.249  # HAL2
      81       0    11     -0.18       2.897      13.781      18.338  # CTL2
      82       0     6      0.09       2.229      13.948       19.21  # HAL2
      83       0     6      0.09       2.276      13.824      17.418  # HAL2
      84       0    11     -0.18       3.541      12.388      18.438  # CTL2
      85       0     6      0.09       4.206      12.238      17.561  # HAL2
      86       0     6      0.09       4.159      12.341       19.36  # HAL2
      87       0    11     -0.18       2.505      11.259      18.479  # CTL2
      88       0     6      0.09       1.917      11.363      19.416  # HAL2
      89       0     6      0.09       1.822      11.364      17.609  # HAL2
      90       0    11     -0.18       3.128       9.857      18.445  # CTL2
      91       0     6      0.09        3.68       9.726       17.49  # HAL2
      92       0     6      0.09       3.859       9.756      19.275  # HAL2
      93       0    11     -0.18       2.057       8.763      18.582  # CTL2
      94       0     6      0.09       1.535       8.899      19.553  # HAL2
      95       0     6      0.09       1.305         8.9      17.776  # HAL2
      96       0    11     -0.18       2.603       7.328      18.522  # CTL2
      97       0     6      0.09         3.3       7.154      19.369  # HAL2
      98       0     6      0.09       1.745       6.636       18.66  # HAL2
      99       0    11     -0.18       3.316       6.979      17.202  # CTL2
     100       0     6      0.09       2.817       7.486      16.348  # HAL2
     101       0     6      0.09       4.356       7.367      17.243  # HAL2
     102       0    11     -0.18       3.346       5.464      16.946  # CTL2
     103       0     6      0.09       3.915       4.984       17.77  # HAL2
     104       0     6      0.09       2.311        5.06      16.979  # HAL2
     105       0    11     -0.18       3.983       5.085      15.601  # CTL2
     106       0     6      0.09       3.372       5.513      14.778  # HAL2
     107       0     6      0.09       4.989       5.553      15.542  # HAL2
     108       0    12     -0.27       4.133       3.574        15.4  # CTL3
     109       0     7      0.09       4.629       3.355      14.431  # HAL3
     110       0     7      0.09       4.744       3.131      16.216  # HAL3
     111       0     7      0.09       3.141       3.072      15.402  # HAL3
     112       1     2      1.05     -14.863     -18.699           0  # BBNS
     113       2     3     -1.05     -16.115     -17.976           0  # NBNS
     114       3     2      1.05     -16.115      -16.53           0  # BBNS
     115       4     3     -1.05     -14.863     -15.807           0  # NBNS
     116       5     2      1.05     -12.359     -18.699           0  # BBNS
     117       6     3     -1.05     -13.611     -17.976           0  # NBNS
     118       7     2      1.05     -13.611      -16.53           0  # BBNS
     119       8     3     -1.05     -12.359     -15.807           0  # NBNS
     120       9     2      1.05      -9.854     -18.699           0  # BBNS
     121      10     3     -1.05     -11.106     -17.976           0  # NBNS
     122      11     2      1.05     -11.106      -16.53           0  # BBNS
     123      12     3     -1.05      -9.854     -15.807           0  # NBNS
     124      13     2      1.05       -7.35     -18.699           0  # BBNS
     125      14     3     -1.05      -8.602     -17.976           0  # NBNS
     126      15     2      1.05      -8.602      -16.53           0  # BBNS
     127      16     3     -1.05       -7.35     -15.807           0  # NBNS
     128      17     2      1.05      -4.845     -18.699           0  # BBNS
     129      18     3     -1.05      -6.097     -17.976           0  # NBNS
     130      19     2      1.05      -6.097      -16.53           0  # BBNS
     131      20     3     -1.05      -4.845     -15.807           0  # NBNS
     132      21     2      1.05       -2.34     -18.699           0  # BBNS
     133      22     3     -1.05      -3.593     -17.976           0  # NBNS
     134      23     2      1.05      -3.593      -16.53           0  # BBNS
     135      24     3     -1.05       -2.34     -15.807           0  # NBNS
     136      25     2      1.05       0.164     -18.699           0  # BBNS
     137      26     3     -1.05      -1.088     -17.976           0  # NBNS
     138      27     2      1.05      -1.088      -16.53           0  # BBNS
     139      28     3     -1.05       0.164     -15.807           0  # NBNS
     140      29     2      1.05       2.669     -18.699           0  # BBNS
     141      30     3     -1.05       1.416     -17.976           0  # NBNS
     142      31     2      1.05       1.416      -16.53           0  # BBNS
     143      32     3     -1.05       2.669     -15.807           0  # NBNS
     144      33     2      1.05       5.173     -18.699           0  # BBNS
     145      34     3     -1.05       3.921     -17.976           0  # NBNS
     146      35     2      1.05       3.921      -16.53           0  # BBNS
     147      36     3     -1.05       5.173     -15.807           0  # NBNS
     148      37     2      1.05       7.678     -18.699           0  # BBNS
     149      38     3     -1.05       6.425     -17.976           0  # NBNS
     150      39     2      1.05       6.425      -16.53           0  # BBNS
     151      40     3     -1.05       7.678     -15.807           0  # NBNS
     152      41     2      1.05      10.182     -18.699           0  # BBNS
     153      42     3     -1.05        8.93     -17.976           0  # NBNS
     154      43     2      1.05        8.93      -16.53           0  # BBNS
     155      44     3     -1.05      10.182     -15.807           0  # NBNS
     156      45     2      1.05      12.687     -18.699           0  # BBNS
     157      46     3     -1.05      11.435     -17.976           0  # NBNS
     158      47     2      1.05      11.435      -16.53           0  # BBNS
     159      48     3     -1.05      12.687     -15.807           0  # NBNS
     160      49     2      1.05      15.191     -18.699           0  # BBNS
     161      50     3     -1.05      13.939     -17.976           0  # NBNS
     162      51     2      1.05      13.939      -16.53           0  # BBNS
     163      52     3     -1.05      15.191     -15.807           0  # NBNS
     164      53     2      1.05     -14.863     -14.361           0  # BBNS
     165      54     3     -1.05     -16.115     -13.638           0  # NBNS
     166      55     2      1.05     -16.115     -12.192           0  # BBNS
     167      56     3     -1.05     -14.863     -11.469           0  # NBNS
     168      57     2      1.05     -12.359     -14.361           0  # BBNS
     169      58     3     -1.05     -13.611     -13.638           0  # NBNS
     170      59     2      1.05     -13.611     -12.192           0  # BBNS
     171      60     3     -1.05     -12.359     -11.469           0  # NBNS
     172      61     2      1.05      -9.854     -14.361           0  # BBNS
     173      62     3     -1.05     -11.106     -13.638           0  # NBNS
     174      63     2      1.05     -11.106     -12.192           0  # BBNS
     175      64     3     -1.05      -9.854     -11.469           0  # NBNS
     176      65     2      1.05       -7.35     -14.361           0  # BBNS
     177      66     3     -1.05      -8.602     -13.638           0  # NBNS
     178      67     2      1.05      -8.602     -12.192           0  # BBNS
     179      68     3     -1.05       -7.35     -11.469           0  # NBNS
     180      69     2      1.05      -4.845     -14.361           0  # BBNS
     181      70     3     -1.05      -6.097     -13.638           0  # NBNS
     182      71     2      1.05      -6.097     -12.192           0  # BBNS
     183      72     3     -1.05      -4.845     -11.469           0  # NBNS
     184      73     2      1.05       -2.34     -14.361           0  # BBNS
     185      74     3     -1.05      -3.593     -13.638           0  # NBNS
     186      75     2      1.05      -3.593     -12.192           0  # BBNS
     187      76     3     -1.05       -2.34     -11.469           0  # NBNS
     188      77     2      1.05       0.164     -14.361           0  # BBNS
     189      78     3     -1.05      -1.088     -13.638           0  # NBNS
     190      79     2      1.05      -1.088     -12.192           0  # BBNS
     191      80     3     -1.05       0.164     -11.469           0  # NBNS
     192      81     2      1.05       2.669     -14.361           0  # BBNS
     193      82     3     -1.05       1.416     -13.638           0  # NBNS
     194      83     2      1.05       1.416     -12.192           0  # BBNS
     195      84     3     -1.05       2.669     -11.469           0  # NBNS
     196      85     2      1.05       5.173     -14.361           0  # BBNS
     197      86     3     -1.05       3.921     -13.638           0  # NBNS
     198      87     2      1.05       3.921     -12.192           0  # BBNS
     199      88     3     -1.05       5.173     -11.469           0  # NBNS
     200      89     2      1.05       7.678     -14.361           0  # BBNS
     201      90     3     -1.05       6.425     -13.638           0  # NBNS
     202      91     2      1.05       6.425     -12.192           0  # BBNS
     203      92     3     -1.05       7.678     -11.469           0  # NBNS
     204      93     2      1.05      10.182     -14.361           0  # BBNS
     205      94     3     -1.05        8.93     -13.638           0  # NBNS
     206      95     2      1.05        8.93     -12.192           0  # BBNS
     207      96     3     -1.05      10.182     -11.469           0  # NBNS
     208      97     2      1.05      12.687     -14.361           0  # BBNS
     209      98     3     -1.05      11.435     -13.638           0  # NBNS
     210      99     2      1.05      11.435     -12.192           0  # BBNS
     211     100     3     -1.05      12.687     -11.469           0  # NBNS
     212     101     2      1.05      15.191     -14.361           0  # BBNS
     213     102     3     -1.05      13.939     -13.638           0  # NBNS
     214     103     2      1.05      13.939     -12.192           0  # BBNS
     215     104     3     -1.05      15.191     -11.469           0  # NBNS
     216     105     2      1.05     -14.863     -10.023           0  # BBNS
     217     106     3     -1.05     -16.115        -9.3           0  # NBNS
     218     107     2      1.05     -16.115      -7.854           0  # BBNS
     219     108     3     -1.05     -14.863      -7.131           0  # NBNS
     220     109     2      1.05     -12.359     -10.023           0  # BBNS
     221     110     3     -1.05     -13.611        -9.3           0  # NBNS
     222     111     2      1.05     -13.611      -7.854           0  # BBNS
     223     112     3     -1.05     -12.359      -7.131           0  # NBNS
     224     113     2      1.05      -9.854     -10.023           0  # BBNS
     225     114     3     -1.05     -11.106        -9.3           0  # NBNS
     226     115     2      1.05     -11.106      -7.854           0  # BBNS
     227     116     3     -1.05      -9.854      -7.131           0  # NBNS
     228     117     2      1.05       -7.35     -10.023           0  # BBNS
     229     118     3     -1.05      -8.602        -9.3           0  # NBNS
     230     119     2      1.05      -8.602      -7.854           0  # BBNS
     231     120     3     -1.05       -7.35      -7.131           0  # NBNS
     232     121     2      1.05      -4.845     -10.023           0  # BBNS
     233     122     3     -1.05      -6.097        -9.3           0  # NBNS
     234     123     2      1.05      -6.097      -7.854           0  # BBNS
     235     124     3     -1.05      -4.845      -7.131           0  # NBNS
     236     125     2      1.05       -2.34     -10.023           0  # BBNS
     237     126     3     -1.05      -3.593        -9.3           0  # NBNS
     238     127     2      1.05      -3.593      -7.854           0  # BBNS
     239     128     3     -1.05       -2.34      -7.131           0  # NBNS
     240     129     2      1.05       0.164     -10.023           0  # BBNS
     241     130     3     -1.05      -1.088        -9.3           0  # NBNS
     242     131     2      1.05      -1.088      -7.854           0  # BBNS
     243     132     3     -1.05       0.164      -7.131           0  # NBNS
     244     133     2      1.05       2.669     -10.023           0  # BBNS
     245     134     3     -1.05       1.416        -9.3           0  # NBNS
     246     135     2      1.05       1.416      -7.854           0  # BBNS
     247     136     3     -1.05       2.669      -7.131           0  # NBNS
     248     137     2      1.05       5.173     -10.023           0  # BBNS
     249     138     3     -1.05       3.921        -9.3           0  # NBNS
     250     139     2      1.05       3.921      -7.854           0  # BBNS
     251     140     3     -1.05       5.173      -7.131           0  # NBNS
     252     141     2      1.05       7.678     -10.023           0  # BBNS
     253     142     3     -1.05       6.425        -9.3           0  # NBNS
     254     143     2      1.05       6.425      -7.854           0  # BBNS
     255     144     3     -1.05       7.678      -7.131           0  # NBNS
     256     145     2      1.05      10.182     -10.023           0  # BBNS
     257     146     3     -1.05        8.93        -9.3           0  # NBNS
     258     147     2      1.05        8.93      -7.854           0  # BBNS
     259     148     3     -1.05      10.182      -7.131           0  # NBNS
     260     149     2      1.05      12.687     -10.023           0  # BBNS
     261     150     3     -1.05      11.435        -9.3           0  # NBNS
     262     151     2      1.05      11.435      -7.854           0  # BBNS
     263     152     3     -1.05      12.687      -7.131           0  # NBNS
     264     153     2      1.05      15.191     -10.023           0  # BBNS
     265     154     3     -1.05      13.939        -9.3           0  # NBNS
     266     155     2      1.05      13.939      -7.854           0  # BBNS
     267     156     3     -1.05      15.191      -7.131           0  # NBNS
     268     157     2      1.05     -14.863      -5.685           0  # BBNS
     269     158     3     -1.05     -16.115      -4.962           0  # NBNS
     270     159     2      1.05     -16.115      -3.516           0  # BBNS
     271     160     3     -1.05     -14.863      -2.793           0  # NBNS
     272     161     2      1.05     -12.359      -5.685           0  # BBNS
     273     162     3     -1.05     -13.611      -4.962           0  # NBNS
     274     163     2      1.05     -13.611      -3.516           0  # BBNS
     275     164     3     -1.05     -12.359      -2.793           0  # NBNS
     276     165     2      1.05      -9.854      -5.685           0  # BBNS
     277     166     3     -1.05     -11.106      -4.962           0  # NBNS
     278     167     2      1.05     -11.106      -3.516           0  # BBNS
     279     168     3     -1.05      -9.854      -2.793           0  # NBNS
     280     169     2      1.05       -7.35      -5.685           0  # BBNS
     281     170     3     -1.05      -8.602      -4.962           0  # NBNS
     282     171     2      1.05      -8.602      -3.516           0  # BBNS
     283     172     3     -1.05       -7.35      -2.793           0  # NBNS
     284     173     2      1.05      -4.845      -5.685           0  # BBNS
     285     174     3     -1.05      -6.097      -4.962           0  # NBNS
     286     175     2      1.05      -6.097      -3.516           0  # BBNS
     287     176     3     -1.05      -4.845      -2.793           0  # NBNS
     288     177     2      1.05       -2.34      -5.685           0  # BBNS
     289     178     3     -1.05      -3.593      -4.962           0  # NBNS
     290     179     2      1.05      -3.593      -3.516           0  # BBNS
     291     180     3     -1.05       -2.34      -2.793           0  # NBNS
     292     181     2      1.05       0.164      -5.685           0  # BBNS
     293     182     3     -1.05      -1.088      -4.962           0  # NBNS
     294     183     2      1.05      -1.088      -3.516           0  # BBNS
     295     184     3     -1.05       0.164      -2.793           0  # NBNS
     296     185     2      1.05       2.669      -5.685           0  # BBNS
     297     186     3     -1.05       1.416      -4.962           0  # NBNS
     298     187     2      1.05       1.416      -3.516           0  # BBNS
     299     188     3     -1.05       2.669      -2.793           0  # NBNS
     300     189     2      1.05       5.173      -5.685           0  # BBNS
     301     190     3     -1.05       3.921      -4.962           0  # NBNS
     302     191     2      1.05       3.921      -3.516           0  # BBNS
     303     192     3     -1.05       5.173      -2.793           0  # NBNS
     304     193     2      1.05       7.678      -5.685           0  # BBNS
     305     194     3     -1.05       6.425      -4.962           0  # NBNS
     306     195     2      1.05       6.425      -3.516           0  # BBNS
     307     196     3     -1.05       7.678      -2.793           0  # NBNS
     308     197     2      1.05      10.182      -5.685           0  # BBNS
     309     198     3     -1.05        8.93      -4.962           0  # NBNS
     310     199     2      1.05        8.93      -3.516           0  # BBNS
     311     200     3     -1.05      10.182      -2.793           0  # NBNS
     312     201     2      1.05      12.687      -5.685           0  # BBNS
     313     202     3     -1.05      11.435      -4.962           0  # NBNS
     314     203     2      1.05      11.435      -3.516           0  # BBNS
     315     204     3     -1.05      12.687      -2.793           0  # NBNS
     316     205     2      1.05      15.191      -5.685           0  # BBNS
     317     206     3     -1.05      13.939      -4.962           0  # NBNS
     318     207     2      1.05      13.939      -3.516           0  # BBNS
     319     208     3     -1.05      15.191      -2.793           0  # NBNS
     320     209     2      1.05     -14.863      -1.347           0  # BBNS
     321     210     3     -1.05     -16.115      -0.624           0  # NBNS
     322     211     2      1.05     -16.115       0.822           0  # BBNS
     323     212     3     -1.05     -14.863       1.545           0  # NBNS
     324     213     2      1.05     -12.359      -1.347           0  # BBNS
     325     214     3     -1.05     -13.611      -0.624           0  # NBNS
     326     215     2      1.05     -13.611       0.822           0  # BBNS
     327     216     3     -1.05     -12.359       1.545           0  # NBNS
     328     217     2      1.05      -9.854      -1.347           0  # BBNS
     329     218     3     -1.05     -11.106      -0.624           0  # NBNS
     330     219     2      1.05     -11.106       0.822           0  # BBNS
     331     220     3     -1.05      -9.854       1.545           0  # NBNS
     332     221     2      1.05       -7.35      -1.347           0  # BBNS
     333     222     3     -1.05      -8.602      -0.624           0  # NBNS
     334     223     2      1.05      -8.602       0.822           0  # BBNS
     335     224     3     -1.05       -7.35       1.545           0  # NBNS
     336     225     2      1.05      -4.845      -1.347           0  # BBNS
     337     226     3     -1.05      -6.097      -0.624           0  # NBNS
     338     227     2      1.05      -6.097       0.822           0  # BBNS
     339     228     3     -1.05      -4.845       1.545           0  # NBNS
     340     229     2      1.05       -2.34      -1.347           0  # BBNS
     341     230     3     -1.05      -3.593      -0.624           0  # NBNS
     342     231     2      1.05      -3.593       0.822           0  # BBNS
     343     232     3     -1.05       -2.34       1.545           0  # NBNS
     344     233     2      1.05       0.164      -1.347           0  # BBNS
     345     234     3     -1.05      -1.088      -0.624           0  # NBNS
     346     235     2      1.05      -1.088       0.822           0  # BBNS
     347     236     3     -1.05       0.164       1.545           0  # NBNS
     348     237     2      1.05       2.669      -1.347           0  # BBNS
     349     238     3     -1.05       1.416      -0.624           0  # NBNS
     350     239     2      1.05       1.416       0.822           0  # BBNS
     351     240     3     -1.05       2.669       1.545           0  # NBNS
     352     241     2      1.05       5.173      -1.347           0  # BBNS
     353     242     3     -1.05       3.921      -0.624           0  # NBNS
     354     243     2      1.05       3.921       0.822           0  # BBNS
     355     244     3     -1.05       5.173       1.545           0  # NBNS
     356     245     2      1.05       7.678      -1.347           0  # BBNS
     357     246     3     -1.05       6.425      -0.624           0  # NBNS
     358     247     2      1.05       6.425       0.822           0  # BBNS
     359     248     3     -1.05       7.678       1.545           0  # NBNS
     360     249     2      1.05      10.182      -1.347           0  # BBNS
     361     250     3     -1.05        8.93      -0.624           0  # NBNS
     362     251     2      1.05        8.93       0.822           0  # BBNS
     363     252     3     -1.05      10.182       1.545           0  # NBNS
     364     253     2      1.05      12.687      -1.347           0  # BBNS
     365     254     3     -1.05      11.435      -0.624           0  # NBNS
     366     255     2      1.05      11.435       0.822           0  # BBNS