Created by charmm2lammps v1.8.1 on Fri Dec 16 22:37:11 MSK 2016

        5284  atoms
        3220  bonds
        1651  angles
          72  dihedrals
           0  impropers

          13  atom types
          12  bond types
          21  angle types
          19  dihedral types
           0  improper types

     -7.8825      24.0465 xlo xhi
    -10.1315      28.1545 ylo yhi
    -21.7965      22.6325 zlo zhi

Masses

       1      1.008  # HT
       2     12.011  # CGRA
       3    15.9994  # OT
       4      1.008  # HL
       5      1.008  # HAL2
       6      1.008  # HAL3
       7     12.011  # CTL2
       8     12.011  # CTL3
       9     12.011  # CTL5
      10     14.007  # NTL
      11    15.9994  # O2L
      12    15.9994  # OSLP
      13     30.974  # PL

Pair Coeffs

       1      0.046  0.4000135      0.046  0.4000135  # HT
       2     0.0663   3.580000     0.0663   3.580000  # CGRA
       3     0.1521   3.150574     0.1521   3.150574  # OT
       4      0.046   1.247258      0.046   1.247258  # HL
       5      0.028   2.387609      0.028   2.387609  # HAL2
       6      0.024   2.387609      0.024   2.387609  # HAL3
       7      0.056   3.581413       0.01   3.385415  # CTL2
       8      0.078   3.634867       0.01   3.385415  # CTL3
       9       0.08   3.670503       0.01   3.385415  # CTL5
      10        0.2   3.296325        0.2   3.296325  # NTL
      11       0.12   3.029056       0.12   3.029056  # O2L
      12        0.1   2.939966        0.1   2.939966  # OSLP
      13      0.585   3.830864      0.585   3.830864  # PL

Atoms

       1       0    10      -0.6      -1.831      -0.133      17.779  # NTL
       2       0     7      -0.1      -1.211       1.204      17.518  # CTL2
       3       0     9     -0.35      -0.991      -0.921      18.672  # CTL5
       4       0     9     -0.35      -2.042      -0.918      16.514  # CTL5
       5       0     9     -0.35       -3.13       0.004      18.506  # CTL5
       6       0     4      0.25      -0.949       1.619      18.367  # HL
       7       0     4      0.25      -2.077       1.763      17.085  # HL
       8       0     4      0.25      -0.112      -1.298      18.177  # HL
       9       0     4      0.25      -0.583      -0.408      19.473  # HL
      10       0     4      0.25      -1.497       -1.81      19.032  # HL
      11       0     4      0.25      -1.094      -1.117      16.051  # HL
      12       0     4      0.25      -2.564      -1.805      16.674  # HL
      13       0     4      0.25       -2.73      -0.396      15.903  # HL
      14       0     4      0.25      -3.507      -0.977      18.733  # HL
      15       0     4      0.25       -3.01        0.75      19.301  # HL
      16       0     4      0.25      -3.914       0.447      17.886  # HL
      17       0     7     -0.08      -0.038        1.28      16.616  # CTL2
      18       0     5      0.09       -0.26       1.089      15.487  # HAL2
      19       0     5      0.09       0.372       2.302      16.575  # HAL2
      20       0    13       1.5       1.962      -0.572      16.611  # PL
      21       0    11     -0.78       1.944      -1.584      17.627  # O2L
      22       0    11     -0.78       3.205      -0.134      16.058  # O2L
      23       0    12     -0.57       1.096       0.612       17.11  # OSLP
      24       0    12     -0.57       1.084      -1.035      15.385  # OSLP
      25       0     7     -0.08       1.565      -0.732      14.054  # CTL2
      26       0     5      0.09        1.91       0.379      14.013  # HAL2
      27       0     5      0.09       2.367      -1.429       13.77  # HAL2
      28       0     8     -0.27       0.478      -0.918       12.97  # CTL3
      29       0     6      0.09        0.16      -1.986      13.117  # HAL3
      30       0     6      0.09       0.984       -0.62      11.678  # HAL3
      31       0     6      0.09      -1.003      -0.196       13.06  # HAL3
      32       1     2         0        -6.5          -9           0  # CGRA
      33       2     2         0      -7.728      -8.291           0  # CGRA
      34       3     2         0      -7.728      -6.873           0  # CGRA
      35       4     2         0        -6.5      -6.164           0  # CGRA
      36       5     2         0      -4.044          -9           0  # CGRA
      37       6     2         0      -5.272      -8.291           0  # CGRA
      38       7     2         0      -5.272      -6.873           0  # CGRA
      39       8     2         0      -4.044      -6.164           0  # CGRA
      40       9     2         0      -1.588          -9           0  # CGRA
      41      10     2         0      -2.816      -8.291           0  # CGRA
      42      11     2         0      -2.816      -6.873           0  # CGRA
      43      12     2         0      -1.588      -6.164           0  # CGRA
      44      13     2         0       0.868          -9           0  # CGRA
      45      14     2         0       -0.36      -8.291           0  # CGRA
      46      15     2         0       -0.36      -6.873           0  # CGRA
      47      16     2         0       0.868      -6.164           0  # CGRA
      48      17     2         0       3.324          -9           0  # CGRA
      49      18     2         0       2.096      -8.291           0  # CGRA
      50      19     2         0       2.096      -6.873           0  # CGRA
      51      20     2         0       3.324      -6.164           0  # CGRA
      52      21     2         0        5.78          -9           0  # CGRA
      53      22     2         0       4.552      -8.291           0  # CGRA
      54      23     2         0       4.552      -6.873           0  # CGRA
      55      24     2         0        5.78      -6.164           0  # CGRA
      56      25     2         0       8.236          -9           0  # CGRA
      57      26     2         0       7.008      -8.291           0  # CGRA
      58      27     2         0       7.008      -6.873           0  # CGRA
      59      28     2         0       8.236      -6.164           0  # CGRA
      60      29     2         0      10.692          -9           0  # CGRA
      61      30     2         0       9.464      -8.291           0  # CGRA
      62      31     2         0       9.464      -6.873           0  # CGRA
      63      32     2         0      10.692      -6.164           0  # CGRA
      64      33     2         0      13.148          -9           0  # CGRA
      65      34     2         0       11.92      -8.291           0  # CGRA
      66      35     2         0       11.92      -6.873           0  # CGRA
      67      36     2         0      13.148      -6.164           0  # CGRA
      68      37     2         0      15.604          -9           0  # CGRA
      69      38     2         0      14.376      -8.291           0  # CGRA
      70      39     2         0      14.376      -6.873           0  # CGRA
      71      40     2         0      15.604      -6.164           0  # CGRA
      72      41     2         0       18.06          -9           0  # CGRA
      73      42     2         0      16.832      -8.291           0  # CGRA
      74      43     2         0      16.832      -6.873           0  # CGRA
      75      44     2         0       18.06      -6.164           0  # CGRA
      76      45     2         0      20.517          -9           0  # CGRA
      77      46     2         0      19.289      -8.291           0  # CGRA
      78      47     2         0      19.289      -6.873           0  # CGRA
      79      48     2         0      20.517      -6.164           0  # CGRA
      80      49     2         0      22.973          -9           0  # CGRA
      81      50     2         0      21.745      -8.291           0  # CGRA
      82      51     2         0      21.745      -6.873           0  # CGRA
      83      52     2         0      22.973      -6.164           0  # CGRA
      84      53     2         0        -6.5      -4.746           0  # CGRA
      85      54     2         0      -7.728      -4.037           0  # CGRA
      86      55     2         0      -7.728      -2.619           0  # CGRA
      87      56     2         0        -6.5       -1.91           0  # CGRA
      88      57     2         0      -4.044      -4.746           0  # CGRA
      89      58     2         0      -5.272      -4.037           0  # CGRA
      90      59     2         0      -5.272      -2.619           0  # CGRA
      91      60     2         0      -4.044       -1.91           0  # CGRA
      92      61     2         0      -1.588      -4.746           0  # CGRA
      93      62     2         0      -2.816      -4.037           0  # CGRA
      94      63     2         0      -2.816      -2.619           0  # CGRA
      95      64     2         0      -1.588       -1.91           0  # CGRA
      96      65     2         0       0.868      -4.746           0  # CGRA
      97      66     2         0       -0.36      -4.037           0  # CGRA
      98      67     2         0       -0.36      -2.619           0  # CGRA
      99      68     2         0       0.868       -1.91           0  # CGRA
     100      69     2         0       3.324      -4.746           0  # CGRA
     101      70     2         0       2.096      -4.037           0  # CGRA
     102      71     2         0       2.096      -2.619           0  # CGRA
     103      72     2         0       3.324       -1.91           0  # CGRA
     104      73     2         0        5.78      -4.746           0  # CGRA
     105      74     2         0       4.552      -4.037           0  # CGRA
     106      75     2         0       4.552      -2.619           0  # CGRA
     107      76     2         0        5.78       -1.91           0  # CGRA
     108      77     2         0       8.236      -4.746           0  # CGRA
     109      78     2         0       7.008      -4.037           0  # CGRA
     110      79     2         0       7.008      -2.619           0  # CGRA
     111      80     2         0       8.236       -1.91           0  # CGRA
     112      81     2         0      10.692      -4.746           0  # CGRA
     113      82     2         0       9.464      -4.037           0  # CGRA
     114      83     2         0       9.464      -2.619           0  # CGRA
     115      84     2         0      10.692       -1.91           0  # CGRA
     116      85     2         0      13.148      -4.746           0  # CGRA
     117      86     2         0       11.92      -4.037           0  # CGRA
     118      87     2         0       11.92      -2.619           0  # CGRA
     119      88     2         0      13.148       -1.91           0  # CGRA
     120      89     2         0      15.604      -4.746           0  # CGRA
     121      90     2         0      14.376      -4.037           0  # CGRA
     122      91     2         0      14.376      -2.619           0  # CGRA
     123      92     2         0      15.604       -1.91           0  # CGRA
     124      93     2         0       18.06      -4.746           0  # CGRA
     125      94     2         0      16.832      -4.037           0  # CGRA
     126      95     2         0      16.832      -2.619           0  # CGRA
     127      96     2         0       18.06       -1.91           0  # CGRA
     128      97     2         0      20.517      -4.746           0  # CGRA
     129      98     2         0      19.289      -4.037           0  # CGRA
     130      99     2         0      19.289      -2.619           0  # CGRA
     131     100     2         0      20.517       -1.91           0  # CGRA
     132     101     2         0      22.973      -4.746           0  # CGRA
     133     102     2         0      21.745      -4.037           0  # CGRA
     134     103     2         0      21.745      -2.619           0  # CGRA
     135     104     2         0      22.973       -1.91           0  # CGRA
     136     105     2         0        -6.5      -0.492           0  # CGRA
     137     106     2         0      -7.728       0.217           0  # CGRA
     138     107     2         0      -7.728       1.635           0  # CGRA
     139     108     2         0        -6.5       2.344           0  # CGRA
     140     109     2         0      -4.044      -0.492           0  # CGRA
     141     110     2         0      -5.272       0.217           0  # CGRA
     142     111     2         0      -5.272       1.635           0  # CGRA
     143     112     2         0      -4.044       2.344           0  # CGRA
     144     113     2         0      -1.588      -0.492           0  # CGRA
     145     114     2         0      -2.816       0.217           0  # CGRA
     146     115     2         0      -2.816       1.635           0  # CGRA
     147     116     2         0      -1.588       2.344           0  # CGRA
     148     117     2         0       0.868      -0.492           0  # CGRA
     149     118     2         0       -0.36       0.217           0  # CGRA
     150     119     2         0       -0.36       1.635           0  # CGRA
     151     120     2         0       0.868       2.344           0  # CGRA
     152     121     2         0       3.324      -0.492           0  # CGRA
     153     122     2         0       2.096       0.217           0  # CGRA
     154     123     2         0       2.096       1.635           0  # CGRA
     155     124     2         0       3.324       2.344           0  # CGRA
     156     125     2         0        5.78      -0.492           0  # CGRA
     157     126     2         0       4.552       0.217           0  # CGRA
     158     127     2         0       4.552       1.635           0  # CGRA
     159     128     2         0        5.78       2.344           0  # CGRA
     160     129     2         0       8.236      -0.492           0  # CGRA
     161     130     2         0       7.008       0.217           0  # CGRA
     162     131     2         0       7.008       1.635           0  # CGRA
     163     132     2         0       8.236       2.344           0  # CGRA
     164     133     2         0      10.692      -0.492           0  # CGRA
     165     134     2         0       9.464       0.217           0  # CGRA
     166     135     2         0       9.464       1.635           0  # CGRA
     167     136     2         0      10.692       2.344           0  # CGRA
     168     137     2         0      13.148      -0.492           0  # CGRA
     169     138     2         0       11.92       0.217           0  # CGRA
     170     139     2         0       11.92       1.635           0  # CGRA
     171     140     2         0      13.148       2.344           0  # CGRA
     172     141     2         0      15.604      -0.492           0  # CGRA
     173     142     2         0      14.376       0.217           0  # CGRA
     174     143     2         0      14.376       1.635           0  # CGRA
     175     144     2         0      15.604       2.344           0  # CGRA
     176     145     2         0       18.06      -0.492           0  # CGRA
     177     146     2         0      16.832       0.217           0  # CGRA
     178     147     2         0      16.832       1.635           0  # CGRA
     179     148     2         0       18.06       2.344           0  # CGRA
     180     149     2         0      20.517      -0.492           0  # CGRA
     181     150     2         0      19.289       0.217           0  # CGRA
     182     151     2         0      19.289       1.635           0  # CGRA
     183     152     2         0      20.517       2.344           0  # CGRA
     184     153     2         0      22.973      -0.492           0  # CGRA
     185     154     2         0      21.745       0.217           0  # CGRA
     186     155     2         0      21.745       1.635           0  # CGRA
     187     156     2         0      22.973       2.344           0  # CGRA
     188     157     2         0        -6.5       3.762           0  # CGRA
     189     158     2         0      -7.728       4.471           0  # CGRA
     190     159     2         0      -7.728       5.889           0  # CGRA
     191     160     2         0        -6.5       6.598           0  # CGRA
     192     161     2         0      -4.044       3.762           0  # CGRA
     193     162     2         0      -5.272       4.471           0  # CGRA
     194     163     2         0      -5.272       5.889           0  # CGRA
     195     164     2         0      -4.044       6.598           0  # CGRA
     196     165     2         0      -1.588       3.762           0  # CGRA
     197     166     2         0      -2.816       4.471           0  # CGRA
     198     167     2         0      -2.816       5.889           0  # CGRA
     199     168     2         0      -1.588       6.598           0  # CGRA
     200     169     2         0       0.868       3.762           0  # CGRA
     201     170     2         0       -0.36       4.471           0  # CGRA
     202     171     2         0       -0.36       5.889           0  # CGRA
     203     172     2         0       0.868       6.598           0  # CGRA
     204     173     2         0       3.324       3.762           0  # CGRA
     205     174     2         0       2.096       4.471           0  # CGRA
     206     175     2         0       2.096       5.889           0  # CGRA
     207     176     2         0       3.324       6.598           0  # CGRA
     208     177     2         0        5.78       3.762           0  # CGRA
     209     178     2         0       4.552       4.471           0  # CGRA
     210     179     2         0       4.552       5.889           0  # CGRA
     211     180     2         0        5.78       6.598           0  # CGRA
     212     181     2         0       8.236       3.762           0  # CGRA
     213     182     2         0       7.008       4.471           0  # CGRA
     214     183     2         0       7.008       5.889           0  # CGRA
     215     184     2         0       8.236       6.598           0  # CGRA
     216     185     2         0      10.692       3.762           0  # CGRA
     217     186     2         0       9.464       4.471           0  # CGRA
     218     187     2         0       9.464       5.889           0  # CGRA
     219     188     2         0      10.692       6.598           0  # CGRA
     220     189     2         0      13.148       3.762           0  # CGRA
     221     190     2         0       11.92       4.471           0  # CGRA
     222     191     2         0       11.92       5.889           0  # CGRA
     223     192     2         0      13.148       6.598           0  # CGRA
     224     193     2         0      15.604       3.762           0  # CGRA
     225     194     2         0      14.376       4.471           0  # CGRA
     226     195     2         0      14.376       5.889           0  # CGRA
     227     196     2         0      15.604       6.598           0  # CGRA
     228     197     2         0       18.06       3.762           0  # CGRA
     229     198     2         0      16.832       4.471           0  # CGRA
     230     199     2         0      16.832       5.889           0  # CGRA
     231     200     2         0       18.06       6.598           0  # CGRA
     232     201     2         0      20.517       3.762           0  # CGRA
     233     202     2         0      19.289       4.471           0  # CGRA
     234     203     2         0      19.289       5.889           0  # CGRA
     235     204     2         0      20.517       6.598           0  # CGRA
     236     205     2         0      22.973       3.762           0  # CGRA
     237     206     2         0      21.745       4.471           0  # CGRA
     238     207     2         0      21.745       5.889           0  # CGRA
     239     208     2         0      22.973       6.598           0  # CGRA
     240     209     2         0        -6.5       8.016           0  # CGRA
     241     210     2         0      -7.728       8.725           0  # CGRA
     242     211     2         0      -7.728      10.143           0  # CGRA
     243     212     2         0        -6.5      10.852           0  # CGRA
     244     213     2         0      -4.044       8.016           0  # CGRA
     245     214     2         0      -5.272       8.725           0  # CGRA
     246     215     2         0      -5.272      10.143           0  # CGRA
     247     216     2         0      -4.044      10.852           0  # CGRA
     248     217     2         0      -1.588       8.016           0  # CGRA
     249     218     2         0      -2.816       8.725           0  # CGRA
     250     219     2         0      -2.816      10.143           0  # CGRA
     251     220     2         0      -1.588      10.852           0  # CGRA
     252     221     2         0       0.868       8.016           0  # CGRA
     253     222     2         0       -0.36       8.725           0  # CGRA
     254     223     2         0       -0.36      10.143           0  # CGRA
     255     224     2         0       0.868      10.852           0  # CGRA
     256     225     2         0       3.324       8.016           0  # CGRA
     257     226     2         0       2.096       8.725           0  # CGRA
     258     227     2         0       2.096      10.143           0  # CGRA
     259     228     2         0       3.324      10.852           0  # CGRA
     260     229     2         0        5.78       8.016           0  # CGRA
     261     230     2         0       4.552       8.725           0  # CGRA
     262     231     2         0       4.552      10.143           0  # CGRA
     263     232     2         0        5.78      10.852           0  # CGRA
     264     233     2         0       8.236       8.016           0  # CGRA
     265     234     2         0       7.008       8.725           0  # CGRA
     266     235     2         0       7.008      10.143           0  # CGRA
     267     236     2         0       8.236      10.852           0  # CGRA
     268     237     2         0      10.692       8.016           0  # CGRA
     269     238     2         0       9.464       8.725           0  # CGRA
     270     239     2         0       9.464      10.143           0  # CGRA
     271     240     2         0      10.692      10.852           0  # CGRA
     272     241     2         0      13.148       8.016           0  # CGRA
     273     242     2         0       11.92       8.725           0  # CGRA
     274     243     2         0       11.92      10.143           0  # CGRA
     275     244     2         0      13.148      10.852           0  # CGRA
     276     245     2         0      15.604       8.016           0  # CGRA
     277     246     2         0      14.376       8.725           0  # CGRA
     278     247     2         0      14.376      10.143           0  # CGRA
     279     248     2         0      15.604      10.852           0  # CGRA
     280     249     2         0       18.06       8.016           0  # CGRA
     281     250     2         0      16.832       8.725           0  # CGRA
     282     251     2         0      16.832      10.143           0  # CGRA
     283     252     2         0       18.06      10.852           0  # CGRA
     284     253     2         0      20.517       8.016           0  # CGRA
     285     254     2         0      19.289       8.725           0  # CGRA
     286     255     2         0      19.289      10.143           0  # CGRA
     287     256     2         0      20.517      10.852           0  # CGRA
     288     257     2         0      22.973       8.016           0  # CGRA
     289     258     2         0      21.745       8.725           0  # CGRA
     290     259     2         0      21.745      10.143           0  # CGRA
     291     260     2         0      22.973      10.852           0  # CGRA
     292     261     2         0        -6.5       12.27           0  # CGRA
     293     262     2         0      -7.728      12.979           0  # CGRA
     294     263     2         0      -7.728      14.397           0  # CGRA
     295     264     2         0        -6.5      15.106           0  # CGRA
     296     265     2         0      -4.044       12.27           0  # CGRA
     297     266     2         0      -5.272      12.979           0  # CGRA
     298     267     2         0      -5.272      14.397           0  # CGRA
     299     268     2         0      -4.044      15.106           0  # CGRA
     300     269     2         0      -1.588       12.27           0  # CGRA
     301     270     2         0      -2.816      12.979           0  # CGRA
     302     271     2         0      -2.816      14.397           0  # CGRA
     303     272     2         0      -1.588      15.106           0  # CGRA
     304     273     2         0       0.868       12.27           0  # CGRA
     305     274     2         0       -0.36      12.979           0  # CGRA
     306     275     2         0       -0.36      14.397           0  # CGRA
     307     276     2         0       0.868      15.106           0  # CGRA
     308     277     2         0       3.324       12.27           0  # CGRA
     309     278     2         0       2.096      12.979           0  # CGRA
     310     279     2         0       2.096      14.397           0  # CGRA
     311     280     2         0       3.324      15.106           0  # CGRA
     312     281     2         0        5.78       12.27           0  # CGRA
     313     282     2         0       4.552      12.979           0  # CGRA
     314     283     2         0       4.552      14.397           0  # CGRA
     315     284     2         0        5.78      15.106           0  # CGRA
     316     285     2         0       8.236       12.27           0  # CGRA
     317     286     2         0       7.008      12.979           0  # CGRA
     318     287     2         0       7.008      14.397           0  # CGRA
     319     288     2         0       8.236      15.106           0  # CGRA
     320     289     2         0      10.692       12.27           0  # CGRA
     321     290     2         0       9.464      12.979           0  # CGRA
     322     291     2         0       9.464      14.397           0  # CGRA
     323     292     2         0      10.692      15.106           0  # CGRA
     324     293     2         0      13.148       12.27           0  # CGRA
     325     294     2         0       11.92      12.979           0  # CGRA
     326     295     2         0       11.92      14.397           0  # CGRA
     327     296     2         0      13.148      15.106           0  # CGRA
     328     297     2         0      15.604       12.27           0  # CGRA
     329     298     2         0      14.376      12.979           0  # CGRA
     330     299     2         0      14.376      14.397           0  # CGRA
     331     300     2         0      15.604      15.106           0  # CGRA
     332     301     2         0       18.06       12.27           0  # CGRA
     333     302     2         0      16.832      12.979           0  # CGRA
     334     303     2         0      16.832      14.397           0  # CGRA
     335     304     2         0       18.06      15.106           0  # CGRA
     336     305     2         0      20.517       12.27           0  # CGRA
     337     306     2         0      19.289      12.979           0  # CGRA
     338     307     2         0      19.289      14.397           0  # CGRA
     339     308     2         0      20.517      15.106           0  # CGRA
     340     309     2         0      22.973       12.27           0  # CGRA
     341     310     2         0      21.745      12.979           0  # CGRA
     342     311     2         0      21.745      14.397           0  # CGRA
     343     312     2         0      22.973      15.106           0  # CGRA
     344     313     2         0        -6.5      16.524           0  # CGRA
     345     314     2         0      -7.728      17.233           0  # CGRA
     346     315     2         0      -7.728      18.651           0  # CGRA
     347     316     2         0        -6.5       19.36           0  # CGRA
     348     317     2         0      -4.044      16.524           0  # CGRA
     349     318     2         0      -5.272      17.233           0  # CGRA
     350     319     2         0      -5.272      18.651           0  # CGRA
     351     320     2         0      -4.044       19.36           0  # CGRA
     352     321     2         0      -1.588      16.524           0  # CGRA
     353     322     2         0      -2.816      17.233           0  # CGRA
     354     323     2         0      -2.816      18.651           0  # CGRA
     355     324     2         0      -1.588       19.36           0  # CGRA
     356     325     2         0       0.868      16.524           0  # CGRA
     357     326     2         0       -0.36      17.233           0  # CGRA
     358     327     2         0       -0.36      18.651           0  # CGRA
     359     328     2         0       0.868       19.36           0  # CGRA
     360     329     2         0       3.324      16.524           0  # CGRA
     361     330     2         0       2.096      17.233           0  # CGRA
     362     331     2         0       2.096      18.651           0  # CGRA
     363     332     2         0       3.324       19.36           0  # CGRA
     364     333     2         0        5.78      16.524           0  # CGRA
     365     334     2         0       4.552      17.233           0  # CGRA
     366     335     2         0       4.552      18.651           0  # CGRA
     367     336     2         0        5.78       19.36           0  # CGRA
     368     337     2         0       8.236      16.524           0  # CGRA
     369     338     2         0       7.008      17.233           0  # CGRA