LAMMPS data file via write_data, version 30 Jul 2016, timestep = 174000000

5520 atoms
23 atom types
4068 bonds
28 bond types
3295 angles
55 angle types
2714 dihedrals
122 dihedral types
2 impropers
1 improper types

-1.5487570000000000e+01 1.4321569999999999e+01 xlo xhi
-1.7497900000000001e+01 1.6922899999999998e+01 ylo yhi
-2.7155705616274918e+01 2.8536705616274919e+01 zlo zhi

Masses

1 1.008
2 15.9994
3 1.008
4 1.008
5 1.008
6 1.008
7 12.011
8 12.011
9 12.011
10 12.011
11 12.011
12 15.9994
13 15.9994
14 12.011
15 12.011
16 12.011
17 12.011
18 15.9994
19 15.9994
20 15.9994
21 15.9994
22 1.008
23 1.008

Pair Coeffs # lj/charmm/coul/long

1 0.046 0.400014 0.046 0.400014
2 0.1521 3.15057 0.1521 3.15057
3 0.022 2.35197 0.022 2.35197
4 0.028 2.38761 0.028 2.38761
5 0.024 2.38761 0.024 2.38761
6 0.031 2.22725 0.031 2.22725
7 0.07 3.56359 0.07 3.56359
8 0.02 4.05359 0.01 3.38542
9 0.056 3.58141 0.01 3.38542
10 0.078 3.63487 0.01 3.38542
11 0.068 3.72396 0.068 3.72396
12 0.12 3.02906 0.12 2.49452
13 0.1 2.93997 0.1 2.93997
14 0.07 3.55005 0.07 3.55005
15 0.066 3.49999 0.066 3.49999
16 0.07 3.55005 0.07 3.55005
17 0.1049 3.74997 0.1049 3.74997
18 0.1401 2.90005 0.1401 2.90005
19 0.1699 3.07004 0.1699 3.07004
20 0.2101 2.95992 0.2101 2.95992
21 0.1699 3.00001 0.1699 3.00001
22 0.046 0.400014 0.046 0.400014
23 0.046 0.400014 0.046 0.400014

Bond Coeffs # harmonic

1 938 1.418
2 634 1.51
3 938 1.418
4 938 1.418
5 634 1.51
6 634 1.51
7 640 1.41
8 440 1.34
9 365 1.502
10 360.5 1.1
11 900 1.364
12 200 1.522
13 750 1.22
14 150 1.334
15 222.5 1.538
16 222.5 1.538
17 309 1.111
18 340 1.43
19 222.5 1.53
20 222.5 1.528
21 309 1.111
22 340 1.43
23 322 1.111
24 1140 1.229
25 900 1.364
26 1106 0.945
27 1106 0.945
28 450 0.9572

Angle Coeffs # charmm

1 126 120 0 0
2 140 120 0 0
3 126 120 0 0
4 170 120 0 0
5 80 109.5 0 0
6 80 109.5 0 0
7 80 109.5 0 0
8 100 109.5 0 0
9 126 120 0 0
10 140 120 0 0
11 140 120 0 0
12 160 120.4 0 0
13 140 120 0 0
14 140 116 0 0
15 140 119.7 0 0
16 140 119.7 0 0
17 80 109.5 0 0
18 100 109.5 0 0
19 140 120 0 0
20 120 109.5 0 0
21 48 123.5 0 0
22 52 119.5 0 0
23 32 112.2 0 0
24 45 111.5 0 0
25 126 120 0 0
26 100 109.5 0 0
27 70 113 0 0
28 52 108 0 0
29 33 109.5 30 2.163
30 40 109.6 30 2.2651
31 40 109.6 30 2.2651
32 26.5 110.1 22.53 2.179
33 75.7 110.1 0 0
34 33.43 110.1 22.53 2.179
35 40 116 0 0
36 70 125 20 2.442
37 55 109 20 2.326
38 58.35 113.5 11.16 2.561
39 34.5 110.1 22.53 2.179
40 75.7 110.1 0 0
41 58.35 113.6 11.16 2.561
42 58 115 8 2.561
43 26.5 110.1 22.53 2.179
44 34.6 110.1 22.53 2.179
45 34.5 110.1 22.53 2.179
46 75.7 110.1 0 0
47 34.6 110.1 22.53 2.179
48 70 113 0 0
49 60 109.5 0 0
50 35.5 109 5.4 1.802
51 60 109.5 0 0
52 35.5 108.4 5.4 1.802
53 55 104.52 0 0
54 160 121 0 0
55 90 125.9 160 2.2576

Dihedral Coeffs # charmm

1 0 1 0 0.5
2 0 1 0 0.5
3 0 1 0 1
4 0 1 0 1
5 0 1 0 0.5
6 0 1 0 0.5
7 0 1 0 1
8 0 1 0 1
9 0 1 0 0.5
10 0 1 0 0.5
11 0 1 0 1
12 0 1 0 1
13 0 1 0 1
14 0 1 0 0.5
15 0 1 0 1
16 0 1 0 1
17 0 1 0 0.5
18 0 1 0 0.5
19 0 1 0 0
20 0 1 0 0.5
21 0 1 0 1
22 0 1 0 0
23 0 1 0 0.5
24 0 1 0 0.5
25 0 1 0 0.5
26 0 1 0 1
27 0 1 0 1
28 0 1 0 1
29 0 1 0 0.5
30 0 1 0 0.5
31 0 1 0 0.5
32 0 1 0 1
33 0 1 0 0.5
34 0 1 0 1
35 0 1 0 1
36 0 1 0 1
37 0 1 0 0.5
38 0 1 0 1
39 0 1 0 1
40 0 1 0 0.5
41 0 1 0 1
42 0 1 0 0
43 0.91 1 180 1
44 0.18 2 180 0
45 0.17 3 180 0
46 0.3 3 180 1
47 0.14 1 180 1
48 0.17 2 0 0
49 0.05 3 180 0
50 0.19 3 0 1
51 0 1 0 1
52 0 1 0 1
53 0 1 0 1
54 0 1 0 1
55 0 1 0 1
56 0 1 0 0
57 0 5 180 1
58 0.317 3 180 0
59 0.557 2 0 0
60 0.753 1 0 0
61 0.19 3 0 1
62 0 4 0 1
63 0.15 3 180 0
64 1.453 2 180 0
65 0.837 1 180 0
66 0 4 0 1
67 0.15 3 180 0
68 1.453 2 180 0
69 0.837 1 180 0
70 0 3 0 1
71 0.267 3 180 1
72 0.173 2 0 0
73 0.781 1 180 0
74 0 3 0 1
75 2.05 2 180 1
76 0.965 1 180 1
77 3.85 2 180 0
78 0.45 1 180 1
79 8.5 2 180 0
80 0.45 1 180 1
81 8.5 2 180 0
82 2.05 2 180 1
83 0.2 3 0 1
84 0.12 3 0 1
85 0.05 6 180 1
86 0 6 0 1
87 0.03 3 180 0
88 0.432 2 180 0
89 0.332 1 0 0
90 0.101 2 0 1
91 0.142 3 180 0
92 0.074 4 0 0
93 0.097 5 0 0
94 0.162 2 0 1
95 0.047 3 180 0
96 0.105 4 0 0
97 0.177 5 0 0
98 0.19 3 0 1
99 0.16 3 0 1
100 0.965 1 180 1
101 3.85 2 180 0
102 0.2 3 0 1
103 0 3 0 1
104 0.19 3 0 1
105 0 1 0 1
106 0.2 3 0 1
107 0.2 3 0 1
108 0.2 3 0 1
109 0 3 0 1
110 0 6 180 1
111 0 6 180 1
112 0.2 3 0 1
113 0.19 3 0 1
114 0.16 3 0 1
115 0.2 3 0 1
116 0 1 0 1
117 1 2 180 1
118 0 1 0 1
119 -0.429 4 60 1
120 0.614 3 0 0
121 -0.115 2 60 0
122 0.703 1 180 0

Improper Coeffs # harmonic

1 100 0

Atoms # full

936 79 1 4.1699999999999998e-01 -1.2565553519101501e+01 -1.3873179103633724e+01 -2.0439478015784729e+01 -34 35 0
2923 742 2 -8.3399999999999996e-01 -9.3534005625927286e+00 -1.5418903575908741e+01 -2.5815305827475584e+01 -57 -6 1
1524 275 1 4.1699999999999998e-01 -9.1552762734339375e+00 -1.1918024809574307e+01 -2.5501406056881329e+01 -73 -18 1
740 14 1 4.1699999999999998e-01 -1.1776136656906296e+01 -1.5845745550960622e+01 -2.0906411565468673e+01 18 -2 1
5285 1529 1 4.1699999999999998e-01 -1.2594033088057095e+01 -9.4939206901724749e+00 -2.4797005139466236e+01 34 -37 0
4241 1181 1 4.1699999999999998e-01 -1.0591896458344740e+01 -1.4742078956577206e+01 -2.4375684627238819e+01 7 42 1
1401 234 1 4.1699999999999998e-01 -1.3815872491740469e+01 -1.4562704037457252e+01 -2.2993072308435426e+01 -7 15 0
4240 1181 2 -8.3399999999999996e-01 -1.1191512928965613e+01 -1.4073204469023592e+01 -2.4045092649056894e+01 7 42 1
5284 1529 2 -8.3399999999999996e-01 -1.3043050006647475e+01 -8.9768383838242638e+00 -2.5465742588929228e+01 34 -37 0
4242 1181 1 4.1699999999999998e-01 -1.0633507206703236e+01 -1.3360161994118540e+01 -2.4355615646380951e+01 7 42 1
3940 1081 2 -8.3399999999999996e-01 -1.4941069340534701e+01 -1.4390978355689775e+01 -2.4516726902003690e+01 -60 -9 0
1123 142 2 -8.3399999999999996e-01 -8.1097282533352377e+00 -9.3025594851270181e+00 -2.4244585234124944e+01 -47 -13 1
741 14 1 4.1699999999999998e-01 -1.1319779161624282e+01 -1.7275359920044195e+01 -2.0832648193180013e+01 18 -2 1
2924 742 1 4.1699999999999998e-01 -8.6867665928285049e+00 -1.5245685047087846e+01 -2.6479984879404356e+01 -57 -6 1
739 14 2 -8.3399999999999996e-01 -1.1589573598751455e+01 -1.6543319377530139e+01 -2.0278086551278854e+01 18 -2 1
1400 234 1 4.1699999999999998e-01 -1.2369421223774586e+01 -1.4337882109327992e+01 -2.2613396229502222e+01 -7 15 0
1213 172 2 -8.3399999999999996e-01 -9.7034058305978590e+00 -1.0496552366796211e+01 -2.0739246565676105e+01 17 4 1
3942 1081 1 4.1699999999999998e-01 -1.4295162979389547e+01 -1.3970247623866621e+01 -2.5084178425410322e+01 -60 -9 0
1724 342 1 4.1699999999999998e-01 -9.7320413558700452e+00 -1.2259883884964678e+01 -2.0583879901073232e+01 -57 0 1
2223 508 1 4.1699999999999998e-01 -1.4254412330615784e+01 -1.1923462484533587e+01 -2.2075318812588957e+01 3 16 0
1546 283 2 -8.3399999999999996e-01 -1.1366770873416012e+01 -1.0438336878228521e+01 -2.3079738792769259e+01 5 48 0
2925 742 1 4.1699999999999998e-01 -8.8666560313431848e+00 -1.6037624190913160e+01 -2.5270807581482849e+01 -57 -6 1
1522 275 2 -8.3399999999999996e-01 -9.7095607753362039e+00 -1.1652433456584697e+01 -2.4767630343055046e+01 -73 -18 1
1523 275 1 4.1699999999999998e-01 -9.2271427200537559e+00 -1.0855896655833822e+01 -2.4546200218980704e+01 -73 -18 1
1215 172 1 4.1699999999999998e-01 -1.0498643706626446e+01 -9.9690967963996258e+00 -2.0664265562201361e+01 17 4 1
3941 1081 1 4.1699999999999998e-01 -1.5324285868874988e+01 -1.3627802770586058e+01 -2.4084375518000840e+01 -60 -9 0
2222 508 1 4.1699999999999998e-01 -1.2937869233318098e+01 -1.1252933281831506e+01 -2.2150502475435871e+01 3 16 0
1399 234 2 -8.3399999999999996e-01 -1.3223465442643727e+01 -1.4557758260058236e+01 -2.2241259527986852e+01 -7 15 0
1547 283 1 4.1699999999999998e-01 -1.0708188837765091e+01 -1.0537251905641888e+01 -2.2392216540103004e+01 5 48 0
2221 508 2 -8.3399999999999996e-01 -1.3619546492279726e+01 -1.1475359035363633e+01 -2.1516427034818570e+01 3 16 0
3762 1021 1 4.1699999999999998e-01 -1.4367404128887291e+01 -9.9648519481806979e+00 -2.4676376382065762e+01 -46 51 1
1548 283 1 4.1699999999999998e-01 -1.0912674239028153e+01 -1.0782053166696398e+01 -2.3849058322207544e+01 5 48 0
1214 172 1 4.1699999999999998e-01 -9.0336151466089465e+00 -1.0031460481304823e+01 -2.0237962514947050e+01 17 4 1
4814 1372 1 4.1699999999999998e-01 -1.1213589126677796e+01 -1.7066481334536356e+01 -2.6317096543866203e+01 -14 -8 0
3760 1021 2 -8.3399999999999996e-01 -1.5210133231589440e+01 -9.9999362323150578e+00 -2.4223834343102610e+01 -46 51 1
2772 691 1 4.1699999999999998e-01 -1.5165191921202501e+01 -1.1960623842623246e+01 -2.6606656021192748e+01 2 16 0
3118 807 2 -8.3399999999999996e-01 -8.6325424628273666e+00 -1.0287934050443527e+01 -1.5018788066545095e+01 12 -20 0
2523 608 1 4.1699999999999998e-01 -9.2110900514043088e+00 -1.6607667428284149e+01 -1.8982604120064938e+01 -6 21 1
2522 608 1 4.1699999999999998e-01 -9.3688946072770136e+00 -1.5284484631678197e+01 -1.8208063322026049e+01 -6 21 1
2394 565 1 4.1699999999999998e-01 -8.8522667154603951e+00 -1.6581785062144508e+01 -1.6513577800112131e+01 -22 -30 0
978 93 1 4.1699999999999998e-01 -1.2443157574598109e+01 -1.7446311949396772e+01 -1.8794337778734182e+01 29 35 1
2013 438 1 4.1699999999999998e-01 -1.4703893146223177e+01 -1.2083498312310349e+01 -1.8119857817579671e+01 -34 -7 1
4788 1363 1 4.1699999999999998e-01 -1.1732749673393633e+01 -1.3995646504797854e+01 -1.8028228885208193e+01 -6 -21 1
2521 608 2 -8.3399999999999996e-01 -9.0467174127993975e+00 -1.6183302258874587e+01 -1.8140535990713971e+01 -6 21 1
5246 1516 1 4.1699999999999998e-01 -1.0590377847553606e+01 -1.4083013921649076e+01 -1.4025791761160491e+01 7 -41 1
3822 1041 1 4.1699999999999998e-01 -1.3723746357734187e+01 -1.6784389916090646e+01 -1.4155361205246479e+01 11 14 1
1723 342 2 -8.3399999999999996e-01 -9.8182229598058672e+00 -1.3085026605176841e+01 -2.0106459431641809e+01 -57 0 1
2392 565 2 -8.3399999999999996e-01 -8.5137573150412287e+00 -1.6493146809414061e+01 -1.5622658225394362e+01 -22 -30 0
1725 342 1 4.1699999999999998e-01 -1.0762074618406007e+01 -1.3146344579904714e+01 -1.9959439073267383e+01 -57 0 1
934 79 2 -8.3399999999999996e-01 -1.2478000041937895e+01 -1.3227771230251221e+01 -1.9738063419622357e+01 -34 35 0
1019 107 1 4.1699999999999998e-01 -1.4194298354931416e+01 -9.5388521970331066e+00 -1.6079302164343957e+01 4 28 1
1353 218 1 4.1699999999999998e-01 -8.8310336774252498e+00 -9.1192964788433528e+00 -1.7801526201524343e+01 -4 1 0
3991 1098 2 -8.3399999999999996e-01 -1.0406198278113930e+01 -1.0213627188319260e+01 -1.7066226250546599e+01 6 18 1
4336 1213 2 -8.3399999999999996e-01 -1.3182580342324298e+01 -1.1221438943742022e+01 -1.3716237800813904e+01 -16 46 1
1898 400 1 4.1699999999999998e-01 -1.5343860372321588e+01 -1.2100540500004266e+01 -1.5139125348991360e+01 -41 25 1
4338 1213 1 4.1699999999999998e-01 -1.2767977201546017e+01 -1.2048042414872979e+01 -1.3469138533202397e+01 -16 46 1
935 79 1 4.1699999999999998e-01 -1.2999634904753657e+01 -1.2504385276933899e+01 -2.0085677604705047e+01 -34 35 0
1907 403 1 4.1699999999999998e-01 -8.2918521510518595e+00 -1.6160881404027123e+01 -1.3579939407639626e+01 1 58 1
3993 1098 1 4.1699999999999998e-01 -1.1348485805248059e+01 -1.0064112215951905e+01 -1.6988958012796562e+01 6 18 1
4786 1363 2 -8.3399999999999996e-01 -1.1541498732728927e+01 -1.4488094297052857e+01 -1.7230036702246501e+01 -6 -21 1
4787 1363 1 4.1699999999999998e-01 -1.1199919022082561e+01 -1.5306926546476367e+01 -1.7589287518823163e+01 -6 -21 1
1283 195 1 4.1699999999999998e-01 -8.3867107574353170e+00 -1.3679348941958118e+01 -1.5591088380132046e+01 -56 19 1
4106 1136 1 4.1699999999999998e-01 -1.3760860970609297e+01 -1.3712967368940857e+01 -1.5823359454584194e+01 -35 -7 1
3120 807 1 4.1699999999999998e-01 -9.1880644254497170e+00 -1.0063578519225779e+01 -1.5765285556029001e+01 12 -20 0
5245 1516 2 -8.3399999999999996e-01 -1.1209069382437846e+01 -1.4786794596205945e+01 -1.4221090905529183e+01 7 -41 1
1020 107 1 4.1699999999999998e-01 -1.3181434951451326e+01 -1.0719302380907958e+01 -1.5959471794737890e+01 4 28 1
1284 195 1 4.1699999999999998e-01 -8.7917346690896245e+00 -1.2259745336085698e+01 -1.5225786949517616e+01 -56 19 1
4105 1136 2 -8.3399999999999996e-01 -1.4530378824068277e+01 -1.3899428626822496e+01 -1.5285508233105405e+01 -35 -7 1
1018 107 2 -8.3399999999999996e-01 -1.3388483443964249e+01 -9.9143039399277058e+00 -1.6434154992921322e+01 4 28 1
2393 565 1 4.1699999999999998e-01 -9.0270143648127714e+00 -1.7193750782888007e+01 -1.5220238065491381e+01 -22 -30 0
3119 807 1 4.1699999999999998e-01 -9.2138193816950160e+00 -1.0215503748504304e+01 -1.4261774190835656e+01 12 -20 0
1282 195 2 -8.3399999999999996e-01 -9.1115421407161516e+00 -1.3161822192836127e+01 -1.5240362457725517e+01 -56 19 1
4107 1136 1 4.1699999999999998e-01 -1.4146845744834087e+01 -1.4415522461127559e+01 -1.4576461745775678e+01 -35 -7 1
3992 1098 1 4.1699999999999998e-01 -1.0390087084897482e+01 -1.0760355049556424e+01 -1.7851732849735662e+01 6 18 1
5247 1516 1 4.1699999999999998e-01 -1.1184600056918587e+01 -1.4690412945996593e+01 -1.5173081498509093e+01 7 -41 1
3821 1041 1 4.1699999999999998e-01 -1.2684634933510758e+01 -1.5698713038906996e+01 -1.3785856741102664e+01 11 14 1
3820 1041 2 -8.3399999999999996e-01 -1.3592891762441553e+01 -1.5974461701049540e+01 -1.3662297350047224e+01 11 14 1
5516 1606 1 4.1699999999999998e-01 -1.1675284777248200e+01 -9.9628781699042968e+00 -1.3338847265191898e+01 -3 29 1
5515 1606 2 -8.3399999999999996e-01 -1.0736267423452629e+01 -9.7885377578457593e+00 -1.3274946785458249e+01 -3 29 1
1906 403 2 -8.3399999999999996e-01 -8.8279495780826576e+00 -1.5922165547816121e+01 -1.2823759402377336e+01 1 58 1
1703 335 1 4.1699999999999998e-01 -1.0202182618218609e+01 -1.6061835860573495e+01 -9.8915485059141410e+00 26 -12 1
1434 245 1 4.1699999999999998e-01 -8.4116162264506134e+00 -1.4680375742409858e+01 -7.9803083705349245e+00 -47 11 0
5456 1586 1 4.1699999999999998e-01 -9.7570782948586441e+00 -1.6161489765211957e+01 -7.3185166192900795e+00 -12 -7 1
1702 335 2 -8.3399999999999996e-01 -1.0676083691049005e+01 -1.5807752111310275e+01 -1.0683412660013744e+01 26 -12 1
4649 1317 1 4.1699999999999998e-01 -1.5134058166966014e+01 -1.4728290927579646e+01 -1.2721520926420734e+01 0 -9 0
1812 371 1 4.1699999999999998e-01 -1.4280855542014580e+01 -1.0582865697717484e+01 -8.4067501102258575e+00 50 5 0
5015 1439 1 4.1699999999999998e-01 -1.3411747400395987e+01 -1.5063298431638234e+01 -1.1864126662247127e+01 20 3 1
3196 833 2 -8.3399999999999996e-01 -1.4944225577794215e+01 -1.3553131909595551e+01 -8.7754978666412455e+00 0 18 0
3197 833 1 4.1699999999999998e-01 -1.5448003140097098e+01 -1.4244367299678260e+01 -8.3458218541922271e+00 0 18 0
5317 1540 2 -8.3399999999999996e-01 -1.3109325281658233e+01 -1.1617171792519265e+01 -1.0880937289689427e+01 -2 -24 0
1810 371 2 -8.3399999999999996e-01 -1.4059371816848717e+01 -1.1148941784847096e+01 -7.6673563996484475e+00 50 5 0
4337 1213 1 4.1699999999999998e-01 -1.3502702224361334e+01 -1.0768553120404411e+01 -1.2936107067083228e+01 -16 46 1
3198 833 1 4.1699999999999998e-01 -1.4274973198561087e+01 -1.3943305830961254e+01 -9.3377045111023236e+00 0 18 0
5014 1439 2 -8.3399999999999996e-01 -1.3173264137047624e+01 -1.4481401370892190e+01 -1.1142516880900654e+01 20 3 1
5457 1586 1 4.1699999999999998e-01 -1.1169890476399800e+01 -1.5937576164100230e+01 -7.1952405629329874e+00 -12 -7 1
5469 1590 1 4.1699999999999998e-01 -1.1750989099517083e+01 -1.7352013459493918e+01 -1.0405932373119459e+01 -20 -8 0
1237 180 2 -8.3399999999999996e-01 -1.2761958549676487e+01 -1.4799710060822212e+01 -7.5983796189087869e+00 -5 -16 0
850 51 2 -8.3399999999999996e-01 -1.4703045989951972e+01 -9.6549261404327336e+00 -9.9444469244198288e+00 7 1 1
5455 1586 2 -8.3399999999999996e-01 -1.0486762257119700e+01 -1.6461030307162027e+01 -6.7762484484476779e+00 -12 -7 1
5318 1540 1 4.1699999999999998e-01 -1.2260311970727415e+01 -1.1428667770419050e+01 -1.0481110871831984e+01 -2 -24 0
5016 1439 1 4.1699999999999998e-01 -1.2471941814947909e+01 -1.5053449222232228e+01 -1.0830852395989375e+01 20 3 1
1704 335 1 4.1699999999999998e-01 -9.8710966726893172e+00 -1.5541662714527233e+01 -1.1127721494840031e+01 26 -12 1
1811 371 1 4.1699999999999998e-01 -1.4308884212992579e+01 -1.1966363833989544e+01 -8.0983861545652793e+00 50 5 0
5517 1606 1 4.1699999999999998e-01 -1.0569485615703858e+01 -9.3551583130431002e+00 -1.2437956832874118e+01 -3 29 1
2692 665 2 -8.3399999999999996e-01 -8.6152475619306568e+00 -1.3307967945970706e+01 -6.5671284521733995e+00 -7 59 0
1432 245 2 -8.3399999999999996e-01 -8.5627364231711915e+00 -1.5514117450030326e+01 -8.4255699911749744e+00 -47 11 0
852 51 1 4.1699999999999998e-01 -1.4202343254242964e+01 -1.0390374681802387e+01 -1.0297485323134669e+01 7 1 1
1645 316 2 -8.3399999999999996e-01 -1.5045375039155013e+01 -1.6359991102701350e+01 -7.1605311406373566e+00 -2 13 0
1866 389 1 4.1699999999999998e-01 -1.0531190486622545e+01 -9.4643545983645474e+00 -9.4637288861918840e+00 29 46 1
1239 180 1 4.1699999999999998e-01 -1.3231105281436530e+01 -1.4027951863904242e+01 -7.2813391186977086e+00 -5 -16 0
1864 389 2 -8.3399999999999996e-01 -1.1306047313313245e+01 -9.5796707352913391e+00 -8.9137178703207383e+00 29 46 1
1238 180 1 4.1699999999999998e-01 -1.3440798815330638e+01 -1.5473034738146641e+01 -7.6435645677936215e+00 -5 -16 0
1865 389 1 4.1699999999999998e-01 -1.0935260747515313e+01 -1.0045277068382502e+01 -8.1640998707259982e+00 29 46 1
5319 1540 1 4.1699999999999998e-01 -1.3202087546829006e+01 -1.2569136975583806e+01 -1.0918226433277699e+01 -2 -24 0
2693 665 1 4.1699999999999998e-01 -9.0943861040149905e+00 -1.2481112984089494e+01 -6.5126359197639658e+00 -7 59 0
851 51 1 4.1699999999999998e-01 -1.4021123346662264e+01 -8.9855428093659135e+00 -9.8884201119822599e+00 7 1 1
1908 403 1 4.1699999999999998e-01 -9.6919811312488378e+00 -1.5775568138791909e+01 -1.3208704625787270e+01 1 58 1
1433 245 1 4.1699999999999998e-01 -8.0804129420878201e+00 -1.5401251614311962e+01 -9.2446052223000130e+00 -47 11 0
1646 316 1 4.1699999999999998e-01 -1.5036278161811209e+01 -1.7165535905971311e+01 -6.6435859203503327e+00 -2 13 0
4198 1167 2 -8.3399999999999996e-01 -1.2995389678824671e+01 -9.7923245801758920e+00 -5.2809682799326154e+00 22 -28 0
2694 665 1 4.1699999999999998e-01 -8.7786483225364869e+00 -1.3657417602641416e+01 -5.6911328608091232e+00 -7 59 0
4963 1422 2 -8.3399999999999996e-01 -1.0055086225727822e+01 -1.0810621811303527e+01 -6.1699391778682546e+00 2 2 1
235 3 14 0.0000000000000000e+00 -1.4076000000000001e+01 -1.3090000000000000e+01 5.1727028920746676e-01 0 0 0
1536 279 1 4.1699999999999998e-01 -1.4340824152508342e+01 -1.2495285244386185e+01 -4.7974439926134984e+00 -5 -2 0
1535 279 1 4.1699999999999998e-01 -1.4450334652582304e+01 -1.2511274764690882e+01 -6.2323211639742588e+00 -5 -2 0
1534 279 2 -8.3399999999999996e-01 -1.4700870081346956e+01 -1.3054960159776993e+01 -5.4854378143060991e+00 -5 -2 0
1768 357 2 -8.3399999999999996e-01 -1.2696765462698053e+01 -1.7410492721295405e+01 -5.4990394279958110e+00 -4 19 1
1559 287 1 4.1699999999999998e-01 -1.4861470974856108e+01 -1.5487410398809903e+01 -4.2948965900764478e+00 -23 3 1
3731 1011 1 4.1699999999999998e-01 -8.9006247694352059e+00 -1.4600174981157549e+01 -3.2119945666371059e+00 11 -11 1
5060 1454 1 4.1699999999999998e-01 -1.1907534137102575e+01 -1.7348229516958966e+01 -3.4850044397519326e+00 -8 -15 1
4200 1167 1 4.1699999999999998e-01 -1.3262779051986463e+01 -1.0265832792515376e+01 -6.0686771847487364e+00 22 -28 0
4964 1422 1 4.1699999999999998e-01 -1.0805348219119477e+01 -1.0393499380652905e+01 -5.7464583444761566e+00 2 2 1
227 3 14 0.0000000000000000e+00 -1.2815000000000000e+01 -1.0974000000000000e+01 5.1727028920746676e-01 0 0 0
4980 1427 1 4.1699999999999998e-01 -1.4031544508471338e+01 -1.0957392469978409e+01 -2.5909924075042383e+00 -2 -11 0
3730 1011 2 -8.3399999999999996e-01 -8.9112860128766975e+00 -1.3851857501661842e+01 -3.8087483725546001e+00 11 -11 1
4979 1427 1 4.1699999999999998e-01 -1.3285297474456856e+01 -1.0747570896416551e+01 -3.8421446486841973e+00 -2 -11 0
1770 357 1 4.1699999999999998e-01 -1.3446881483848451e+01 -1.6864151086635481e+01 -5.7336949989976773e+00 -4 19 1
238 3 14 0.0000000000000000e+00 -1.0253000000000000e+01 -1.3914000000000000e+01 5.1727028920746676e-01 0 0 0
5059 1454 2 -8.3399999999999996e-01 -1.2225972404918416e+01 -1.7288218828244876e+01 -2.5843520582756945e+00 -8 -15 1
253 3 22 4.3500000000000000e-01 -1.0741029905818198e+01 -1.6010930028242647e+01 -1.7427316770833237e+00 0 0 0
4978 1427 2 -8.3399999999999996e-01 -1.3714408520136416e+01 -1.1447272469953157e+01 -3.3496996527042526e+00 -2 -11 0
2088 463 1 4.1699999999999998e-01 -1.1557126893011132e+01 -1.2422158324571415e+01 -2.4122928118904916e+00 -22 8 1
231 3 14 0.0000000000000000e+00 -1.4050000000000001e+01 -1.1673999999999999e+01 5.1727028920746676e-01 0 0 0
259 3 22 4.3500000000000000e-01 -1.1372534305077098e+01 -9.6002841898379678e+00 -1.5798200559589475e+00 0 0 0
229 3 14 0.0000000000000000e+00 -9.1159999999999997e+00 -1.1940000000000000e+01 5.1727028920746676e-01 0 0 0
4199 1167 1 4.1699999999999998e-01 -1.3287789339435406e+01 -8.9458063460849235e+00 -5.6188068149446337e+00 22 -28 0
219 3 14 0.0000000000000000e+00 -1.3661000000000000e+01 -8.9840000000000000e+00 5.1727028920746676e-01 0 0 0
251 3 18 -2.8000000000000003e-01 -1.2819040306600984e+01 -1.4566782492189535e+01 -1.0390712084007880e+00 0 0 0
245 3 14 0.0000000000000000e+00 -9.1490000000000009e+00 -1.6026000000000000e+01 5.1727028920746676e-01 0 0 0
243 3 15 1.4000000000000001e-01 -1.2746219203226964e+01 -1.5409964358181799e+01 1.0291754876278603e-01 0 0 0
247 3 14 0.0000000000000000e+00 -1.4035000000000000e+01 -1.6126000000000001e+01 5.1727028920746676e-01 0 0 0
242 3 16 1.4999999999999999e-01 -1.0244292228916137e+01 -1.5274539154400012e+01 3.8537248948781411e-02 0 0 0
239 3 15 1.4000000000000001e-01 -1.2802229880535927e+01 -1.3896657700530522e+01 2.0799037556046329e-01 0 0 0
218 3 14 0.0000000000000000e+00 -1.1475000000000001e+01 -9.0180000000000007e+00 5.1727028920746676e-01 0 0 0
252 3 19 -5.8499999999999996e-01 -1.0260767053516096e+01 -1.5295586815253010e+01 -1.3545997412032627e+00 0 0 0
2086 463 2 -8.3399999999999996e-01 -1.0631240364810024e+01 -1.2283162240061325e+01 -2.6114003360473639e+00 -22 8 1
136 1 14 0.0000000000000000e+00 -1.5234999999999999e+01 -1.5119000000000000e+01 5.1727028920746676e-01 1 0 0
217 3 14 0.0000000000000000e+00 -9.1780000000000008e+00 -9.1359999999999992e+00 5.1727028920746676e-01 0 0 0
258 3 19 -5.8499999999999996e-01 -1.0673654901029927e+01 -1.0104269987529962e+01 -1.1917714446367143e+00 0 0 0
234 3 14 0.0000000000000000e+00 -1.1503000000000000e+01 -1.3242000000000001e+01 5.1727028920746676e-01 0 0 0
2087 463 1 4.1699999999999998e-01 -1.0438079932671410e+01 -1.1650792306224618e+01 -1.9193023930311988e+00 -22 8 1
246 3 14 0.0000000000000000e+00 -1.1401000000000000e+01 -1.5933999999999999e+01 5.1727028920746676e-01 0 0 0
222 3 16 1.4999999999999999e-01 -1.0404341131587991e+01 -9.8727853704991659e+00 1.6570960297358184e-01 0 0 0
4965 1422 1 4.1699999999999998e-01 -9.4774842684032166e+00 -1.0051966852024977e+01 -6.0859667860065763e+00 2 2 1
3732 1011 1 4.1699999999999998e-01 -9.7103470675324868e+00 -1.3365346199860577e+01 -3.6061562599399224e+00 11 -11 1
1769 357 1 4.1699999999999998e-01 -1.2069133076946143e+01 -1.7231763896755673e+01 -6.1992781152628176e+00 -4 19 1
2930 744 1 4.1699999999999998e-01 -1.5084108292050290e+01 -1.7140050486105451e+01 -2.8731518001981406e+00 8 -7 1
1254 185 1 4.1699999999999998e-01 -8.1486497721988265e+00 -1.2142929731938418e+01 -3.7541107160804685e+00 -8 -23 0
249 3 18 -2.8000000000000003e-01 -1.0965047570468911e+01 -1.1427902121071353e+01 2.1145310174075220e+00 0 0 0
254 3 19 -5.8499999999999996e-01 -1.2718451546250952e+01 -9.6455881421314800e+00 2.4507105284835511e+00 0 0 0
256 3 19 -5.8499999999999996e-01 -9.3369322449005843e+00 -1.3268714799531011e+01 2.3412378350058063e+00 0 0 0
257 3 22 4.3500000000000000e-01 -9.9338042638534905e+00 -1.2606812015243039e+01 2.6553199855692213e+00 0 0 0
233 3 16 1.4999999999999999e-01 -9.1072455971779522e+00 -1.3258599358211191e+01 1.0207305477830957e+00 0 0 0
223 3 16 1.4999999999999999e-01 -1.2637521333575858e+01 -9.7144707866969870e+00 1.0693759660908810e+00 0 0 0
226 3 15 1.4000000000000001e-01 -1.0301624198340958e+01 -1.1132720290112138e+01 9.0087233119557197e-01 0 0 0
230 3 15 1.4000000000000001e-01 -1.1624861549835373e+01 -1.1824799353470224e+01 9.2146317706494685e-01 0 0 0
2247 516 1 4.1699999999999998e-01 -1.0193978923407341e+01 -1.5189859616777746e+01 5.0056614815173610e+00 -52 -14 -1
2245 516 2 -8.3399999999999996e-01 -1.0847450091970524e+01 -1.4958653975472195e+01 4.3455682151316744e+00 -52 -14 -1
2246 516 1 4.1699999999999998e-01 -1.0462076100885151e+01 -1.4147787977658922e+01 4.0135950660609225e+00 -52 -14 -1
4300 1201 2 -8.3399999999999996e-01 -9.5210842258377220e+00 -1.5931608609986355e+01 6.3976107880780866e+00 23 -6 0
4301 1201 1 4.1699999999999998e-01 -9.9414117351110747e+00 -1.6133308644148375e+01 7.2335726691864330e+00 23 -6 0
3104 802 1 4.1699999999999998e-01 -1.3428073632565690e+01 -1.5613292963503820e+01 5.4010132595910640e+00 -58 20 0
1747 350 2 -8.3399999999999996e-01 -1.2250795968024867e+01 -1.3159400839949312e+01 7.3146560662514339e+00 4 -7 -1
945 82 1 4.1699999999999998e-01 -9.4601705284342099e+00 -1.1219697417018070e+01 5.0765636275215975e+00 -22 -45 -1
943 82 2 -8.3399999999999996e-01 -8.6187354513049854e+00 -1.1674143665434915e+01 5.1177614115322108e+00 -22 -45 -1
255 3 22 4.3500000000000000e-01 -1.1898991173422695e+01 -9.7441371912319088e+00 2.9109118712398718e+00 0 0 0
3105 802 1 4.1699999999999998e-01 -1.4267516732963713e+01 -1.5840860807358268e+01 4.1424079108933185e+00 -58 20 0
4302 1201 1 4.1699999999999998e-01 -8.9422292044931666e+00 -1.5322040785178590e+01 6.8554034561295261e+00 23 -6 0
5022 1441 1 4.1699999999999998e-01 -1.1282286325284311e+01 -1.1597718299681107e+01 7.1338695686603337e+00 -7 -8 0
1648 317 2 -8.3399999999999996e-01 -8.4984451550539752e+00 -9.0264691920584799e+00 7.0640868202722480e+00 -47 14 0
3321 874 1 4.1699999999999998e-01 -1.0485244631332066e+01 -1.6653747905783344e+01 3.2720199965415908e+00 -44 15 0
4021 1108 2 -8.3399999999999996e-01 -1.5443495684645164e+01 -9.9415952772207099e+00 4.9492401011264882e+00 -19 39 0
5366 1556 1 4.1699999999999998e-01 -1.5152530836737212e+01 -1.2475310989143439e+01 6.2303910067535462e+00 -9 -21 0
3006 769 1 4.1699999999999998e-01 -1.5044622070310528e+01 -9.0834282784138338e+00 7.6038091159324672e+00 5 35 0
5003 1435 1 4.1699999999999998e-01 -8.1995299949038518e+00 -1.5375496384074490e+01 5.1313884799428102e+00 -42 32 0
944 82 1 4.1699999999999998e-01 -8.4195943773122650e+00 -1.1858958114165748e+01 4.1999573560482446e+00 -22 -45 -1
5365 1556 2 -8.3399999999999996e-01 -1.5177707590518629e+01 -1.2587876035644474e+01 5.2801971509970080e+00 -9 -21 0
5020 1441 2 -8.3399999999999996e-01 -1.0935797909826791e+01 -1.0716015252607470e+01 7.2708998710949437e+00 -7 -8 0
3103 802 2 -8.3399999999999996e-01 -1.4196748987653699e+01 -1.5296602332178056e+01 4.9266045414456663e+00 -58 20 0
4023 1108 1 4.1699999999999998e-01 -1.4486727713318983e+01 -9.9151411340249247e+00 4.9379741020822898e+00 -19 39 0
3956 1086 1 4.1699999999999998e-01 -1.4698279441493410e+01 -1.6997281428024468e+01 6.9943880618452390e+00 -33 37 -1
5021 1441 1 4.1699999999999998e-01 -1.1665206449986176e+01 -1.0135208260157899e+01 7.4873610995616211e+00 -7 -8 0
5367 1556 1 4.1699999999999998e-01 -1.4706839076124652e+01 -1.3403614477229530e+01 5.1096545510577052e+00 -9 -21 0
1649 317 1 4.1699999999999998e-01 -9.0665317256304299e+00 -9.7968301146285839e+00 7.0567235058752651e+00 -47 14 0
4468 1257 2 -8.3399999999999996e-01 -1.0559522393218790e+01 -9.2645694290930809e+00 4.0495650397592051e+00 17 7 0
4072 1125 2 -8.3399999999999996e-01 -1.2252561353398766e+01 -1.2201291510252570e+01 1.0627316947416151e+01 -15 19 -1
3362 888 1 4.1699999999999998e-01 -1.5226768968259307e+01 -1.1686848952506319e+01 9.5743706770719292e+00 -89 -1 -1
1838 380 1 4.1699999999999998e-01 -1.4305781501056735e+01 -1.4579678413533005e+01 9.6016324407822289e+00 26 -5 0
3361 888 2 -8.3399999999999996e-01 -1.4540241506039280e+01 -1.1976665150832646e+01 8.9736274830577152e+00 -89 -1 -1
1613 305 1 4.1699999999999998e-01 -1.4627341367012491e+01 -1.4570547703585426e+01 1.2291516449048469e+01 -57 32 -1
1748 350 1 4.1699999999999998e-01 -1.2970072645940936e+01 -1.2907399129474463e+01 7.8937460455970516e+00 4 -7 -1
1839 380 1 4.1699999999999998e-01 -1.4496482024811424e+01 -1.5457619137932094e+01 8.4484847677466028e+00 26 -5 0
4944 1415 1 4.1699999999999998e-01 -1.0854482437655193e+01 -1.6999036611651562e+01 9.4915594519084046e+00 -15 -23 0
5294 1532 1 4.1699999999999998e-01 -1.0655370436280098e+01 -1.7189098180379691e+01 1.1928206412928727e+01 -17 12 -1
1837 380 2 -8.3399999999999996e-01 -1.3833177022448952e+01 -1.5248521714792759e+01 9.1061416321312940e+00 26 -5 0
4774 1359 2 -8.3399999999999996e-01 -1.1787562718381098e+01 -1.1428199263352438e+01 1.3314584500121821e+01 -65 60 0
1749 350 1 4.1699999999999998e-01 -1.1945655356127869e+01 -1.3991997709406608e+01 7.6750630933903672e+00 4 -7 -1
3004 769 2 -8.3399999999999996e-01 -1.4217763666019533e+01 -9.5193853593283837e+00 7.8099067355414853e+00 5 35 0
3701 1001 1 4.1699999999999998e-01 -1.5016318605836579e+01 -1.2229560722441324e+01 1.3068365831307194e+01 -4 3 -1
1612 305 2 -8.3399999999999996e-01 -1.4005311238634199e+01 -1.4565150766032936e+01 1.3019011271947061e+01 -57 32 -1
1474 259 2 -8.3399999999999996e-01 -1.0138516291504715e+01 -1.3846348036855229e+01 1.0834400488495159e+01 60 -17 0
3608 970 1 4.1699999999999998e-01 -1.2266767180605351e+01 -1.5559591455165389e+01 1.2465566852180348e+01 4 11 -1
4775 1359 1 4.1699999999999998e-01 -1.1664657359792990e+01 -1.0486057614046853e+01 1.3198415985184948e+01 -65 60 0