LAMMPS data file via write_data, version 30 Jul 2016, timestep = 100000000

1168 atoms
17 atom types
732 bonds
13 bond types
371 angles
21 angle types
72 dihedrals
19 dihedral types

-7.7670000000000003e+00 8.0820000000000007e+00 xlo xhi
-9.2885000000000009e+00 9.0114999999999998e+00 ylo yhi
-2.1637246263733513e+01 2.2473246263733511e+01 zlo zhi

Masses

1 1.008
2 15.9994
3 1.008
4 1.008
5 1.008
6 12.011
7 12.011
8 12.011
9 14.007
10 15.9994
11 15.9994
12 30.974
13 35.45
14 26.982
15 24.305
16 15.9994
17 1.008

Pair Coeffs # lj/charmm/coul/long

1 0.046 0.400014 0.046 0.400014
2 0.1521 3.15057 0.1521 3.15057
3 0.046 1.24726 0.046 1.24726
4 0.028 2.38761 0.028 2.38761
5 0.024 2.38761 0.024 2.38761
6 0.056 3.58141 0.01 3.38542
7 0.078 3.63487 0.01 3.38542
8 0.08 3.6705 0.01 3.38542
9 0.2 3.29632 0.2 3.29632
10 0.12 3.02906 0.12 3.02906
11 0.1 2.93997 0.1 2.93997
12 0.585 3.83086 0.585 3.83086
13 0.15 4.04468 0.15 4.04468
14 1.3298e-06 4.27124 1.3298e-06 4.27124
15 9.0298e-07 5.26432 9.0298e-07 5.26432
16 0.1554 3.16554 0.1554 3.16554
17 0.046 0.400014 0.046 0.400014

Bond Coeffs # harmonic

1 222.5 1.53
2 222.5 1.528
3 309 1.111
4 300 1.08
5 215 1.51
6 340 1.43
7 322 1.111
8 300 1.08
9 215 1.51
10 554.135 0.963
11 450 0.9572
12 580 1.48
13 270 1.6

Angle Coeffs # charmm

1 26.5 110.1 22.53 2.179
2 33.43 110.1 22.53 2.179
3 67.7 115 0 0
4 75.7 110.1 0 0
5 34.6 110.1 22.53 2.179
6 60 109.5 26 2.466
7 20 120 35 2.33
8 34.6 110.1 22.53 2.179
9 75.7 110.1 0 0
10 60 109.5 26 2.466
11 35.5 109 5.4 1.802
12 60 109.5 0 0
13 35.5 108.4 5.4 1.802
14 24 109.5 28 1.767
15 40 109.5 27 2.13
16 24 109.5 28 1.767
17 40 109.5 27 2.13
18 55 104.52 0 0
19 120 120 0 0
20 98.9 111.6 0 0
21 80 104.3 0 0

Dihedral Coeffs # charmm

1 0.26 3 0 1
2 0.407 2 0 1
3 0.241 1 180 0
4 0.23 3 0 1
5 0.1 3 0 1
6 1.2 1 180 1
7 0.1 2 180 0
8 0.1 3 180 0
9 0 3 0 1
10 0.26 3 0 1
11 0.23 3 0 1
12 0.19 3 0 1
13 0.19 3 0 1
14 0.16 3 0 1
15 0 3 0 1
16 0.16 3 0 1
17 0.19 3 0 1
18 3.3 1 180 1
19 -0.4 3 180 0

Atoms # full

1056 289 1 4.1699999999999998e-01 -4.9153791828620932e+00 -5.1141136831282159e+00 -1.2272291310621286e+01 -3 16 0
998 270 2 -8.3399999999999996e-01 -4.1657631324195492e+00 -6.8027647545697310e+00 -1.8609835739540735e+01 4 22 0
833 215 2 -8.3399999999999996e-01 -5.9691050468827846e+00 -5.2422744941727206e+00 -1.4533686815757854e+01 -27 -65 1
647 153 2 -8.3399999999999996e-01 -7.2794057256146116e+00 -8.7586036852619138e+00 -1.4461459626256975e+01 -13 -75 0
760 190 1 4.1699999999999998e-01 -5.5370741238826469e+00 -7.9168211864808260e+00 -2.0846342590900690e+01 -107 -69 1
758 190 2 -8.3399999999999996e-01 -5.7162352307741422e+00 -8.8569651691400360e+00 -2.0830247725364814e+01 -107 -69 1
1076 296 2 -8.3399999999999996e-01 -5.0397498500128810e+00 -7.9090283226339730e+00 -1.5770943452709627e+01 -41 66 0
648 153 1 4.1699999999999998e-01 -6.9770856483011725e+00 -8.6222000450814313e+00 -1.3563535542677302e+01 -13 -75 0
731 181 2 -8.3399999999999996e-01 -4.4577888463298292e+00 -7.1054105976241120e+00 -1.2359428410503732e+01 -30 -11 1
924 245 1 4.1699999999999998e-01 -7.1063906036616364e+00 -5.7774569977961088e+00 -1.9012481353254646e+01 -4 -47 0
999 270 1 4.1699999999999998e-01 -4.1640802683245806e+00 -7.3931299609951946e+00 -1.7856363401931088e+01 4 22 0
1077 296 1 4.1699999999999998e-01 -5.8737498690196759e+00 -8.2244700660728416e+00 -1.5422838307025117e+01 -41 66 0
1078 296 1 4.1699999999999998e-01 -5.1731741425741484e+00 -6.9751709327280036e+00 -1.5608644088191856e+01 -41 66 0
733 181 1 4.1699999999999998e-01 -4.6677511230186397e+00 -8.0333787003947563e+00 -1.2464420988877729e+01 -30 -11 1
834 215 1 4.1699999999999998e-01 -6.8553508039634359e+00 -5.3239676149675645e+00 -1.4181360250141726e+01 -27 -65 1
748 186 1 4.1699999999999998e-01 -7.5131640261267894e+00 -8.7979035447589400e+00 -2.0835852107764428e+01 -88 0 1
32 2 14 1.5200000000000000e+00 -6.6040000000000001e+00 -8.3650000000000002e+00 -9.7279336057116694e-02 0 0 0
33 2 15 1.3149999999999999e+00 -6.6040000000000001e+00 -5.3150000000000004e+00 1.5688542314634546e-01 0 0 0
34 2 15 1.3149999999999999e+00 -3.9619999999999966e+00 -6.8399999999999999e+00 1.5688542314634546e-01 0 0 0
39 2 16 -9.4999999999999996e-01 -5.6818544066723398e+00 -6.7675607838098442e+00 -1.1497718759262199e+00 0 0 0
40 2 17 4.2499999999999999e-01 -5.4751464853688603e+00 -7.0259901215256111e+00 -2.0594191056887539e+00 0 0 0
351 54 1 4.1699999999999998e-01 -6.2207695574090831e+00 -6.9778392154347060e+00 -9.0628697811519086e+00 -33 -69 1
839 217 2 -8.3399999999999996e-01 -5.0823983679015807e+00 -5.4135899870222985e+00 -9.5460188563794208e+00 -39 -2 0
422 78 2 -8.3399999999999996e-01 -3.8671735909656673e+00 -5.3770549370264664e+00 -3.7667494628223821e+00 40 -6 1
779 197 2 -8.3399999999999996e-01 -5.9817941282701854e+00 -7.7712739723312030e+00 -3.6778775210194823e+00 -6 0 1
840 217 1 4.1699999999999998e-01 -4.3007669633003367e+00 -5.1918039714843651e+00 -9.0399488197541960e+00 -39 -2 0
780 197 1 4.1699999999999998e-01 -5.4085469832191304e+00 -8.2838550691311639e+00 -4.2478737146085770e+00 -6 0 1
781 197 1 4.1699999999999998e-01 -6.8843814208484977e+00 -7.8437944653575906e+00 -3.9882186341409565e+00 -6 0 1
1135 315 1 4.1699999999999998e-01 -6.6548581692684374e+00 -9.0747107734683095e+00 -9.4188877362419703e+00 -80 15 1
350 54 2 -8.3399999999999996e-01 -6.4055413630473508e+00 -7.6979319644343658e+00 -8.4598973852125994e+00 -33 -69 1
841 217 1 4.1699999999999998e-01 -4.7187065268931674e+00 -5.8131073717678330e+00 -1.0336191251036642e+01 -39 -2 0
352 54 1 4.1699999999999998e-01 -7.1863545893968963e+00 -7.2935614881125375e+00 -8.0816728561901314e+00 -33 -69 1
424 78 1 4.1699999999999998e-01 -4.7971001800349509e+00 -5.5603439416276341e+00 -3.9004526201878775e+00 40 -6 1
688 166 1 4.1699999999999998e-01 -7.3074693625048717e+00 -4.9845884260571980e+00 -7.3032996509408061e+00 -57 -12 1
35 2 16 -9.4999999999999996e-01 -7.4438818093610042e+00 -6.9098783645365822e+00 1.0028133872287412e+00 0 0 0
1096 302 1 4.1699999999999998e-01 -5.8617247416081062e+00 -5.9509635597310160e+00 6.6595230347300145e+00 -28 -9 0
37 2 16 -9.4999999999999996e-01 -4.9239291410185473e+00 -8.3649164195335270e+00 1.0030183081236785e+00 0 0 0
38 2 17 4.2499999999999999e-01 -5.1976003002215840e+00 -8.2862106134916722e+00 1.9291207709630527e+00 0 0 0
45 2 16 -9.4999999999999996e-01 -4.8018361557164120e+00 -5.2448768915667383e+00 1.0030368927155209e+00 0 0 0
46 2 17 4.2499999999999999e-01 -4.4939398863393425e+00 -5.1952466533405133e+00 1.9204299067480441e+00 0 0 0
659 157 2 -8.3399999999999996e-01 -7.7034286719040344e+00 -8.3109316284184533e+00 8.5144704425746198e+00 -67 -11 0
661 157 1 4.1699999999999998e-01 -7.4072402546348712e+00 -7.6849389828076626e+00 7.8536724948683130e+00 -67 -11 0
247 19 1 4.1699999999999998e-01 -7.5359860336427484e+00 -8.7288249142977818e+00 1.0041369909672362e+01 -59 34 0
1168 334 13 -1.0000000000000000e+00 -5.9561362250248564e+00 -7.5353913052121859e+00 3.8356260085706424e+00 3 24 0
882 231 1 4.1699999999999998e-01 -6.7890082858857808e+00 -5.7297928039593407e+00 1.1277210908498727e+01 -10 27 0
36 2 17 4.2499999999999999e-01 -7.2824054439177850e+00 -7.1646191431822697e+00 1.9231079586391715e+00 0 0 0
1095 302 1 4.1699999999999998e-01 -7.0004097785678496e+00 -6.2247136212277674e+00 5.7779894772889691e+00 -28 -9 0
308 40 2 -8.3399999999999996e-01 -4.5635183692187926e+00 -8.9069550985347838e+00 1.0337520352788136e+01 -5 32 -1
1094 302 2 -8.3399999999999996e-01 -6.8156179629430458e+00 -6.0220474446190613e+00 6.6950782349549378e+00 -28 -9 0
1017 276 1 4.1699999999999998e-01 -3.8292076666816102e+00 -6.1918357968191078e+00 3.7220901093786303e+00 -61 31 -1
245 19 2 -8.3399999999999996e-01 -7.4497230295490322e+00 -9.1186456808415084e+00 1.0911353820427340e+01 -59 34 0
309 40 1 4.1699999999999998e-01 -4.6798779234737218e+00 -8.0620427192264756e+00 9.9029820186902988e+00 -5 32 -1
1018 276 1 4.1699999999999998e-01 -3.9322905535622068e+00 -4.8354910780797864e+00 4.0271207444185357e+00 -61 31 -1
881 231 2 -8.3399999999999996e-01 -5.9844040167179067e+00 -5.9899888200697777e+00 1.1725710845427482e+01 -10 27 0
535 115 1 4.1699999999999998e-01 -7.3386562235720403e+00 -7.1702584840519386e+00 2.0794708666631447e+01 -18 -20 -1
774 195 1 4.1699999999999998e-01 -6.6340859912306662e+00 -4.9706547023414229e+00 1.6419777117651616e+01 -46 26 -1
798 203 1 4.1699999999999998e-01 -4.5462462699533273e+00 -5.1298121427399117e+00 1.5757498300570436e+01 -56 -13 -1
698 170 2 -8.3399999999999996e-01 -6.6433388383694396e+00 -7.8042776492133079e+00 1.9370962347593238e+01 -44 -4 0
883 231 1 4.1699999999999998e-01 -6.3261004900295497e+00 -6.7161413126220459e+00 1.2247427329032302e+01 -10 27 0
462 91 1 4.1699999999999998e-01 -4.2257959007643642e+00 -8.3296229802916351e+00 1.3374430172394501e+01 -22 -10 -1
700 170 1 4.1699999999999998e-01 -6.1366388157238863e+00 -8.4910276268297942e+00 1.8937520062256088e+01 -44 -4 0
699 170 1 4.1699999999999998e-01 -6.8677642046325200e+00 -7.2448213687353693e+00 1.8627390769709937e+01 -44 -4 0
461 91 2 -8.3399999999999996e-01 -5.1279209923167226e+00 -8.6243933055786464e+00 1.3249867682055903e+01 -22 -10 -1
463 91 1 4.1699999999999998e-01 -5.0594389921019047e+00 -8.8233131107836549e+00 1.2316049980193920e+01 -22 -10 -1
694 168 1 4.1699999999999998e-01 -7.6913846220453674e+00 -5.1399633134901572e+00 2.0277175816691003e+01 -87 -12 -1
759 190 1 4.1699999999999998e-01 -5.6202803076407442e+00 -9.1497298717655706e+00 2.2373959663847128e+01 -107 -69 0
487 99 1 4.1699999999999998e-01 -4.3853777918261194e+00 -1.2079883987741376e+00 -1.3619097770974234e+01 -53 -41 1
969 260 1 4.1699999999999998e-01 -7.6110860212267424e+00 -2.3035491104106853e+00 -1.9030671013900868e+01 85 38 0
830 214 2 -8.3399999999999996e-01 -5.7458741471073740e+00 -4.0438203387486586e+00 -1.6963639028659905e+01 -5 -25 1
968 260 2 -8.3399999999999996e-01 -6.8491576368726665e+00 -2.0138846523187510e+00 -1.9532471272807548e+01 85 38 0
486 99 1 4.1699999999999998e-01 -4.8337470680391394e+00 -2.6002826220699635e+00 -1.3074787057445105e+01 -53 -41 1
965 259 2 -8.3399999999999996e-01 -7.7394286108258843e+00 -2.1658935636590000e+00 -1.4302700584820837e+01 -52 -36 0
832 214 1 4.1699999999999998e-01 -5.9024755065360726e+00 -4.4155026328971667e+00 -1.6095539693775137e+01 -5 -25 1
1055 289 2 -8.3399999999999996e-01 -4.8138378040085197e+00 -4.1643829806710269e+00 -1.2335006442015676e+01 -3 16 0
831 214 1 4.1699999999999998e-01 -6.6053341178119158e+00 -3.6696305263949931e+00 -1.7157404665175168e+01 -5 -25 1
970 260 1 4.1699999999999998e-01 -6.1067333478908097e+00 -2.4323871549035125e+00 -1.9096694864975710e+01 85 38 0
967 259 1 4.1699999999999998e-01 -7.1056165357589753e+00 -1.4501703778428148e+00 -1.4350190338946490e+01 -52 -36 0
1057 289 1 4.1699999999999998e-01 -3.8713654022003898e+00 -4.0036432556026700e+00 -1.2288738530730594e+01 -3 16 0
623 145 2 -8.3399999999999996e-01 -7.2758707857122396e+00 -2.4470210979572418e+00 -1.1274579019944655e+01 4 49 1
485 99 2 -8.3399999999999996e-01 -5.0405118281549477e+00 -1.9016577066575957e+00 -1.3695608537736792e+01 -53 -41 1
625 145 1 4.1699999999999998e-01 -6.6036580472250925e+00 -3.1236469625894774e+00 -1.1355443986227032e+01 4 49 1
624 145 1 4.1699999999999998e-01 -6.9697561132496553e+00 -1.6526289874045732e+00 -1.1712149784160049e+01 4 49 1
726 179 1 4.1699999999999998e-01 -3.9449549154978825e+00 -3.3823020791551688e+00 -1.7178636433888141e+01 -21 -31 0
966 259 1 4.1699999999999998e-01 -7.0970167240009827e+00 -2.8365529974391404e+00 -1.4070844892610374e+01 -52 -36 0
214 8 1 4.1699999999999998e-01 -7.2403300422231069e+00 -1.0490139391811066e+00 -2.1270177378662662e+01 -39 0 0
835 215 1 4.1699999999999998e-01 -5.5317086099882911e+00 -4.7090581980794042e+00 -1.3869895719504655e+01 -27 -65 1
47 2 14 1.5200000000000000e+00 -3.9629999999999823e+00 -3.7900000000000000e+00 -9.7279336057116694e-02 0 0 0
48 2 15 1.3149999999999999e+00 -6.6040000000000001e+00 -2.2649999999999997e+00 1.5688542314634546e-01 0 0 0
49 2 15 1.3149999999999999e+00 -3.9629999999999823e+00 -7.4000000000000021e-01 1.5688542314634546e-01 0 0 0
50 2 16 -9.4999999999999996e-01 -5.8059416823075027e+00 -3.7904813665794679e+00 -1.1502142952758980e+00 0 0 0
51 2 17 4.2499999999999999e-01 -6.0927230181552146e+00 -3.4623133530532293e+00 -2.0139984462647931e+00 0 0 0
58 2 16 -9.4999999999999996e-01 -5.6818490329924805e+00 -8.1167157611439400e-01 -1.1502051975186518e+00 0 0 0
59 2 17 4.2499999999999999e-01 -5.4154537265858274e+00 -8.8651316286913939e-01 -2.0766806820516273e+00 0 0 0
429 80 1 4.1699999999999998e-01 -5.9463081197185357e+00 -1.9018172705065295e+00 -3.6756585640784856e+00 5 106 1
430 80 1 4.1699999999999998e-01 -7.3431349722030843e+00 -1.7281418334918150e+00 -3.8487104817763189e+00 5 106 1
376 62 1 4.1699999999999998e-01 -4.8693004970254421e+00 -1.9686048308000359e+00 -5.8762797795267829e+00 -31 26 0
711 174 1 4.1699999999999998e-01 -5.2488551301975894e+00 -8.3820368764773079e-01 -9.3980377871632275e+00 33 -60 1
963 258 1 4.1699999999999998e-01 -7.4080346419032805e+00 -2.8856027315851582e+00 -9.0668061245907374e+00 -106 -62 0
374 62 2 -8.3399999999999996e-01 -5.3146872208895743e+00 -2.6504914290196977e+00 -6.3791770338802252e+00 -31 26 0
428 80 2 -8.3399999999999996e-01 -6.7557582592719223e+00 -2.2841779204716861e+00 -3.3367951982548618e+00 5 106 1
375 62 1 4.1699999999999998e-01 -6.1556890374492861e+00 -2.2742762869519311e+00 -6.6388148585009219e+00 -31 26 0
962 258 2 -8.3399999999999996e-01 -7.6580510960441668e+00 -2.3848208469851029e+00 -8.2902951204838313e+00 -106 -62 0
710 174 2 -8.3399999999999996e-01 -4.7016976377723170e+00 -6.8319306178691264e-01 -1.0168004630800532e+01 33 -60 1
615 142 1 4.1699999999999998e-01 -4.0317633532071930e+00 -4.2165917416878820e+00 -7.1088073327947772e+00 -61 11 0
712 174 1 4.1699999999999998e-01 -3.8289207211127478e+00 -8.2725694476372880e-01 -9.8022968776221688e+00 33 -60 1
1163 329 13 -1.0000000000000000e+00 -3.8495577730353423e+00 -8.3603364821975568e-01 -3.8017109441408863e+00 -10 4 0
43 2 16 -9.4999999999999996e-01 -7.5667252775013738e+00 -3.7897446770855794e+00 1.0029068373961003e+00 0 0 0
1012 274 1 4.1699999999999998e-01 -6.5004424119467830e+00 -1.0732537335646892e+00 7.1173460158311421e+00 -46 -4 -1
54 2 16 -9.4999999999999996e-01 -7.4443778430281355e+00 -6.6865731318564059e-01 1.0028355943583414e+00 0 0 0
57 2 17 4.2499999999999999e-01 -4.8800708419485215e+00 -2.1799440773919656e+00 1.9561023971224216e+00 0 0 0
56 2 16 -9.4999999999999996e-01 -4.8026066484659777e+00 -2.3349166162497799e+00 1.0030561788995875e+00 0 0 0
1010 274 2 -8.3399999999999996e-01 -5.6331679360010121e+00 -1.2909189108484016e+00 6.7757392808453751e+00 -46 -4 -1
55 2 17 4.2499999999999999e-01 -7.2759937375674912e+00 -7.5828282429451299e-01 1.9518575759004904e+00 0 0 0
1011 274 1 4.1699999999999998e-01 -5.7625995521981412e+00 -1.1697256174195125e+00 5.8350832624242841e+00 -46 -4 -1
1157 323 13 -1.0000000000000000e+00 -5.3566165127630878e+00 -8.2117345174906120e-01 3.5345426968359490e+00 5 26 0
490 100 1 4.1699999999999998e-01 -5.8971208721893040e+00 -3.6477460809610740e+00 4.8639209485354797e+00 -2 -9 0
489 100 1 4.1699999999999998e-01 -5.1132739349041731e+00 -3.4604296442215592e+00 6.1146415108805279e+00 -2 -9 0
488 100 2 -8.3399999999999996e-01 -5.0737795009536342e+00 -3.9144228744328498e+00 5.2728603554174072e+00 -2 -9 0
399 70 1 4.1699999999999998e-01 -7.6458093692587363e+00 -2.7009285533830862e-01 4.4428014677668806e+00 12 22 -1
823 211 1 4.1699999999999998e-01 -7.7358994789630060e+00 -4.5130447338702737e+00 7.0160341391605421e+00 25 5 -1
44 2 17 4.2499999999999999e-01 -7.6203376867181731e+00 -3.8287740313922907e+00 1.9693953098608716e+00 0 0 0
627 146 1 4.1699999999999998e-01 -5.8215362012694616e+00 -3.5454446915403182e+00 1.4664876526691220e+01 -47 -22 0
1070 294 2 -8.3399999999999996e-01 -6.4477257108403334e+00 -1.2091693968514097e+00 1.9872154381568325e+01 -79 -40 -1
626 146 2 -8.3399999999999996e-01 -5.8381301095064249e+00 -3.4031855479840765e+00 1.3718427641312577e+01 -47 -22 0
579 130 1 4.1699999999999998e-01 -5.3004635440923913e+00 -1.4574588626571217e+00 1.4351578639796099e+01 39 -38 0
775 195 1 4.1699999999999998e-01 -6.3797798275270567e+00 -3.7205051718089788e+00 1.7073917449745640e+01 -46 26 -1
628 146 1 4.1699999999999998e-01 -5.0873040951409170e+00 -3.8320848195214650e+00 1.3307883589565467e+01 -47 -22 0
580 130 1 4.1699999999999998e-01 -4.9498417746540415e+00 -3.4505200510013800e-01 1.5164364161291093e+01 39 -38 0
578 130 2 -8.3399999999999996e-01 -5.0154681276942323e+00 -5.5153009036048495e-01 1.4231982376263009e+01 39 -38 0
1072 294 1 4.1699999999999998e-01 -6.9155213568843790e+00 -1.4149305584215721e+00 2.0681532010993696e+01 -79 -40 -1
472 94 1 4.1699999999999998e-01 -6.6279002895907686e+00 -8.3057816847085242e-01 1.6989697616498315e+01 -95 35 -1
814 208 1 4.1699999999999998e-01 -7.5165288612208556e+00 -2.6623265182892268e+00 1.3061704416456021e+01 23 -57 0
1071 294 1 4.1699999999999998e-01 -6.0111905484595196e+00 -3.9064339237731005e-01 2.0108134396359677e+01 -79 -40 -1
714 175 1 4.1699999999999998e-01 -4.2505446911395808e+00 -8.0146371389393600e-01 1.2736174744943053e+01 -5 7 0
470 94 2 -8.3399999999999996e-01 -5.7602490903917127e+00 -4.7111391305549155e-01 1.6804770524806063e+01 -95 35 -1
713 175 2 -8.3399999999999996e-01 -3.9376305044014601e+00 -8.2368649524435611e-01 1.1831817256705552e+01 -5 7 0
773 195 2 -8.3399999999999996e-01 -6.2375025706769156e+00 -4.1233258521724929e+00 1.6217319786802140e+01 -46 26 -1
692 168 2 -8.3399999999999996e-01 -7.6771879160697916e+00 -4.3522746252336661e+00 1.9733492065719741e+01 -87 -12 -1
315 42 1 4.1699999999999998e-01 -4.5962456248726724e+00 -4.5501130321713736e+00 1.1539557894517383e+01 -74 89 0
1149 320 1 4.1699999999999998e-01 -6.3634287734024504e+00 -1.6683719588265866e-01 1.2915346456744718e+01 -28 22 -1
391 67 1 4.1699999999999998e-01 -6.4229706945604592e+00 3.3821920416933953e+00 -1.4153435481229341e+01 -30 17 1
935 249 2 -8.3399999999999996e-01 -7.7412143327368401e+00 7.4671913025373016e-01 -1.4507905327710272e+01 -40 10 0
389 67 2 -8.3399999999999996e-01 -6.9958816418895520e+00 3.9038644479700046e+00 -1.4715468198867391e+01 -30 17 1
387 66 1 4.1699999999999998e-01 -5.6701141254683778e+00 3.7979751727893341e+00 -1.1152678285605015e+01 51 -26 1
859 223 1 4.1699999999999998e-01 -5.2275286061011439e+00 1.8162337215109297e+00 -1.1869393885992137e+01 21 -10 0
757 189 1 4.1699999999999998e-01 -4.5731610680989352e+00 1.7175504889533588e+00 -1.4526075620127740e+01 49 -40 0
755 189 2 -8.3399999999999996e-01 -5.0978721029182372e+00 1.5481868493451358e+00 -1.3743606225289861e+01 49 -40 0
621 144 1 4.1699999999999998e-01 -4.4609539920787213e+00 2.5361838375312988e+00 -1.6742620455191364e+01 -58 -40 1
230 14 2 -8.3399999999999996e-01 -5.3730783819431185e+00 1.6999881293370596e+00 -2.0252874725916147e+01 54 -49 1
302 38 2 -8.3399999999999996e-01 -5.9420367769637616e+00 2.9074234055263304e+00 -1.7742738991513804e+01 30 10 0
756 189 1 4.1699999999999998e-01 -5.8287765817395210e+00 1.0157119987625194e+00 -1.4057432772113390e+01 49 -40 0
232 14 1 4.1699999999999998e-01 -5.0424785361202042e+00 9.9332595575636695e-01 -1.9698276230881042e+01 54 -49 1
857 223 2 -8.3399999999999996e-01 -5.5116768793379718e+00 1.9505736805114378e+00 -1.0965246567520389e+01 21 -10 0
231 14 1 4.1699999999999998e-01 -5.5953857179914248e+00 2.3386851071442383e+00 -1.9575454742547706e+01 54 -49 1
304 38 1 4.1699999999999998e-01 -6.8655237222052747e+00 2.8856587914342100e+00 -1.7491871256065281e+01 30 10 0
1045 285 1 4.1699999999999998e-01 -7.7253768958718716e+00 1.7517349112387421e+00 -2.0095569647273763e+01 1 -15 0
303 38 1 4.1699999999999998e-01 -5.8235778978660324e+00 3.8448379480808246e+00 -1.7589590787835927e+01 30 10 0
390 67 1 4.1699999999999998e-01 -7.3238895523525125e+00 3.2470131155672561e+00 -1.5329640447921655e+01 -30 17 1
888 233 1 4.1699999999999998e-01 -7.7420661285065293e+00 4.0462509350750082e+00 -1.1144087514346845e+01 -68 -45 0
858 223 1 4.1699999999999998e-01 -5.2980788416816891e+00 1.0597198492802562e+00 -1.0687776518159952e+01 21 -10 0
122 5 14 1.5200000000000000e+00 -6.6040000000000001e+00 7.8500000000000014e-01 -9.7279336057116694e-02 0 0 0
123 5 15 1.3149999999999999e+00 -6.6040000000000001e+00 3.8349999999999991e+00 1.5688542314634546e-01 0 0 0
124 5 15 1.3149999999999999e+00 -3.9619999999999966e+00 2.3100000000000005e+00 1.5688542314634546e-01 0 0 0
129 5 16 -9.4999999999999996e-01 -5.6816914139374788e+00 2.3822604840382979e+00 -1.1497552380108971e+00 0 0 0
130 5 17 4.2499999999999999e-01 -5.3976752283380609e+00 2.3646424487174365e+00 -2.0741481024409048e+00 0 0 0
576 129 1 4.1699999999999998e-01 -4.9251176444212170e+00 9.5325978783756504e-01 -3.8771241827372833e+00 28 39 1
669 160 1 4.1699999999999998e-01 -4.3408945590983290e+00 3.2298419710662838e+00 -3.7159798869383529e+00 -60 -23 1
770 194 2 -8.3399999999999996e-01 -6.3568943060955396e+00 3.1135981482428079e+00 -6.5396816828650906e+00 -76 -35 0
577 129 1 4.1699999999999998e-01 -6.0245896688418359e+00 1.4064119166799482e+00 -4.5875047292856124e+00 28 39 1
575 129 2 -8.3399999999999996e-01 -5.3862963414168021e+00 1.7853113535593739e+00 -3.9831317742844803e+00 28 39 1
771 194 1 4.1699999999999998e-01 -5.8811792894934092e+00 3.9321670633483592e+00 -6.6806522241095099e+00 -76 -35 0
772 194 1 4.1699999999999998e-01 -7.1209568070652542e+00 3.1415269230179419e+00 -7.1155949475747828e+00 -76 -35 0
668 160 2 -8.3399999999999996e-01 -3.8650441104528213e+00 4.0570641983338813e+00 -3.6417938652434110e+00 -60 -23 1
1019 277 2 -8.3399999999999996e-01 -7.4407853273738107e+00 2.5935320366421166e-01 -5.7633251185336469e+00 -17 -4 1
708 173 1 4.1699999999999998e-01 -7.4143030839890178e+00 3.5561251059894836e+00 -4.7701710900957686e+00 -17 -48 0
707 173 2 -8.3399999999999996e-01 -7.7470753989598329e+00 3.9136865263544678e+00 -3.9469590250649667e+00 -17 -48 0
645 152 1 4.1699999999999998e-01 -3.8053016989188126e+00 1.6057368249260531e+00 -6.5249461020416764e+00 41 -50 1
125 5 16 -9.4999999999999996e-01 -7.4431806257473179e+00 2.2401018110922095e+00 1.0030271121109777e+00 0 0 0
1154 322 2 -8.3399999999999996e-01 -4.0933885240091534e+00 2.6261653931711333e+00 3.4397277355279101e+00 40 -70 0
127 5 16 -9.4999999999999996e-01 -4.9237169432240560e+00 7.8469862351490960e-01 1.0030392987136025e+00 0 0 0
128 5 17 4.2499999999999999e-01 -4.9940319425200936e+00 4.7131910173543368e-01 1.9170104077849004e+00 0 0 0
135 5 16 -9.4999999999999996e-01 -4.8023061313954454e+00 3.9047435510090516e+00 1.0029624762463030e+00 0 0 0
136 5 17 4.2499999999999999e-01 -4.8881202174204121e+00 4.0214916593309535e+00 1.9600847230133525e+00 0 0 0
978 263 1 4.1699999999999998e-01 -4.9795841344863430e+00 2.6244656123754897e+00 9.3825107279933917e+00 -61 4 0
979 263 1 4.1699999999999998e-01 -6.2261938207592742e+00 3.3526979782082975e+00 9.2817876394719292e+00 -61 4 0
1156 322 1 4.1699999999999998e-01 -4.6353635094168428e+00 2.1132504635262084e+00 4.0392526494976160e+00 40 -70 0
385 65 1 4.1699999999999998e-01 -4.3513846691651761e+00 6.2595987091919980e-01 5.1960187872835242e+00 -14 -35 -1
384 65 1 4.1699999999999998e-01 -4.7463976437826556e+00 5.3544808868805127e-01 6.6754329517325921e+00 -14 -35 -1
977 263 2 -8.3399999999999996e-01 -5.2876293938239911e+00 3.5299407124284787e+00 9.3443359994930510e+00 -61 4 0
383 65 2 -8.3399999999999996e-01 -4.5167959605510219e+00 1.1508923088674514e+00 5.9791829733806878e+00 -14 -35 -1
683 165 2 -8.3399999999999996e-01 -4.2363392486476350e+00 1.1003345233796686e+00 9.2295126644255063e+00 8 17 0
848 220 2 -8.3399999999999996e-01 -7.5401218455092698e+00 3.7489213535163994e+00 6.3499012712223255e+00 -65 12 -1
849 220 1 4.1699999999999998e-01 -6.8756820474046920e+00 3.9797289925735235e+00 5.7006713023282671e+00 -65 12 -1
126 5 17 4.2499999999999999e-01 -7.5814874863497925e+00 2.2603674754935081e+00 1.9619178138666769e+00 0 0 0
1155 322 1 4.1699999999999998e-01 -4.1684177283596462e+00 3.5045507243193050e+00 3.8126158884278887e+00 40 -70 0
684 165 1 4.1699999999999998e-01 -4.6404471725745822e+00 3.8350995587571468e-01 9.7184917179044170e+00 8 17 0
338 50 2 -8.3399999999999996e-01 -7.6269938401180060e+00 1.5428195098630884e+00 8.7052733386693433e+00 -81 -59 0
850 220 1 4.1699999999999998e-01 -7.3005085704662429e+00 4.3766226183519557e+00 7.0316851885618945e+00 -65 12 -1
681 164 1 4.1699999999999998e-01 -7.5641298379483288e+00 2.8353317413005783e+00 3.9943575269053646e+00 -44 -71 0
685 165 1 4.1699999999999998e-01 -3.8291503823086703e+00 5.4629312848706313e-01 8.5635624911062571e+00 8 17 0
340 50 1 4.1699999999999998e-01 -7.6829159885037726e+00 6.2513146185210289e-01 8.4388976243460014e+00 -81 -59 0
270 27 1 4.1699999999999998e-01 -6.7331590510005217e+00 3.7226798784039303e+00 1.3373926178393045e+01 -78 11 -1
26 1 4 8.9999999999999997e-02 -4.9858926440203106e+00 2.5692755532898843e+00 1.6627234256842730e+01 -58 -18 0
271 27 1 4.1699999999999998e-01 -6.8206861382621273e+00 3.2062145073687205e+00 1.1956355363163194e+01 -78 11 -1
24 1 11 -5.6999999999999995e-01 -6.5127551716287870e+00 1.8970930010827676e+00 1.7807093597417303e+01 -58 -18 0
1148 320 2 -8.3399999999999996e-01 -7.1801825688899221e+00 1.7467455988422209e-01 1.2551310407952098e+01 -28 22 -1
269 27 2 -8.3399999999999996e-01 -6.8737896705347703e+00 2.9218487446613963e+00 1.2868817088304720e+01 -78 11 -1
28 1 7 -2.7000000000000002e-01 -4.6082039467138225e+00 3.0262157815049289e+00 1.8685499652566488e+01 -58 -18 0
25 1 6 -8.0000000000000002e-02 -5.5930695883140373e+00 2.8715927767847997e+00 1.7507176888486310e+01 -58 -18 0
244 18 1 4.1699999999999998e-01 -6.4453278320722651e+00 1.8937794986114618e+00 2.2104940835333888e+01 73 -41 -1
18 1 4 8.9999999999999997e-02 -7.4167223399647106e+00 2.5802188179842673e+00 1.5547853884576096e+01 -58 -18 0
242 18 2 -8.3399999999999996e-01 -6.3811490206687207e+00 1.4143418766027178e+00 2.1278934840117724e+01 73 -41 -1
31 1 5 8.9999999999999997e-02 -5.1500899961595810e+00 3.7347524255253521e+00 1.9347824747501331e+01 -58 -18 0
1150 320 1 4.1699999999999998e-01 -7.0738201338928981e+00 1.1241435585965043e+00 1.2609872776819362e+01 -28 22 -1
471 94 1 4.1699999999999998e-01 -5.6284839865035305e+00 2.5799212733911148e-01 1.7410817204669211e+01 -95 35 -1
337 49 1 4.1699999999999998e-01 -4.4852199881491792e+00 1.8788309402934189e+00 2.1196842848824897e+01 9 3 0
519 110 1 4.1699999999999998e-01 -4.0055328889730042e+00 4.2720902524471747e+00 2.1753906701672786e+01 -24 -21 -1
27 1 4 8.9999999999999997e-02 -6.0101203697085097e+00 3.8847123504980239e+00 1.7322844429670166e+01 -58 -18 0
243 18 1 4.1699999999999998e-01 -6.8030414146698419e+00 2.0360746098845350e+00 2.0685887585377134e+01 73 -41 -1
30 1 5 8.9999999999999997e-02 -4.4936726509010505e+00 2.0847395383311209e+00 1.9264153645982358e+01 -58 -18 0
336 49 1 4.1699999999999998e-01 -3.8518298373694995e+00 1.6373463199069942e+00 2.2452382826986252e+01 9 3 0
313 41 1 4.1699999999999998e-01 -6.8630965024890562e+00 6.0093079106513212e+00 -1.4311976234350119e+01 3 56 0
911 241 2 -8.3399999999999996e-01 -5.1255915070960407e+00 8.2354258606099453e+00 -1.2296853921204667e+01 -12 18 0
1006 272 1 4.1699999999999998e-01 -5.2156549172347155e+00 5.2186232378247688e+00 -1.4460004389368411e+01 25 -24 1
1080 297 1 4.1699999999999998e-01 -4.9884944349048235e+00 6.3811270955462280e+00 -1.6570690973551599e+01 64 13 0
1005 272 1 4.1699999999999998e-01 -4.0638716987953476e+00 4.9267836242747496e+00 -1.3494084845194392e+01 25 -24 1
404 72 2 -8.3399999999999996e-01 -5.4046872239865067e+00 6.8082047199866498e+00 -1.9550967590233416e+01 -79 -53 1
311 41 2 -8.3399999999999996e-01 -7.4179677653004878e+00 6.7832561250008876e+00 -1.4215258735816453e+01 3 56 0
405 72 1 4.1699999999999998e-01 -5.1963525524219261e+00 7.4924519339720934e+00 -2.0187083096948651e+01 -79 -53 1
1081 297 1 4.1699999999999998e-01 -5.4407188335669741e+00 6.1325719505749845e+00 -1.7844022075360748e+01 64 13 0
388 66 1 4.1699999999999998e-01 -5.3665700943954810e+00 5.2711914992136784e+00 -1.1742600458932216e+01 51 -26 1
892 234 1 4.1699999999999998e-01 -7.5807877243408228e+00 6.4218546144036051e+00 -1.7304514724612133e+01 -75 -37 1
912 241 1 4.1699999999999998e-01 -5.4412368257492663e+00 8.3762150755555904e+00 -1.1404206116978136e+01 -12 18 0
1004 272 2 -8.3399999999999996e-01 -4.7028499994838358e+00 5.5941308016033293e+00 -1.3744265335513969e+01 25 -24 1
406 72 1 4.1699999999999998e-01 -6.2956030372327865e+00 6.4731266254944355e+00 -1.9652091593934024e+01 -79 -53 1
920 244 2 -8.3399999999999996e-01 -3.8269327929049259e+00 8.0007854555315259e+00 -1.6373854021117729e+01 -14 -3 1
1079 297 2 -8.3399999999999996e-01 -5.5891454933234144e+00 5.7560514663843723e+00 -1.6976569678282576e+01 64 13 0
649 153 1 4.1699999999999998e-01 -7.6683680259047060e+00 8.6808953989919768e+00 -1.4305002064737744e+01 -13 -76 0
386 66 2 -8.3399999999999996e-01 -6.0066810864213860e+00 4.6689115076155385e+00 -1.1363451623070782e+01 51 -26 1
921 244 1 4.1699999999999998e-01 -4.3042134942419317e+00 8.7459660321613715e+00 -1.6008959515726968e+01 -14 -3 1
913 241 1 4.1699999999999998e-01 -5.6456245678850614e+00 7.4685181502332174e+00 -1.2536963988083114e+01 -12 18 0
983 265 2 -8.3399999999999996e-01 -7.7165219267194107e+00 5.6588536529067408e+00 -1.9983643118439304e+01 -20 -16 1
137 5 14 1.5200000000000000e+00 -3.9629999999999823e+00 5.3600000000000012e+00 -9.7279336057116694e-02 0 0 0
138 5 15 1.3149999999999999e+00 -6.6040000000000001e+00 6.8849999999999998e+00 1.5688542314634546e-01 0 0 0
139 5 15 1.3149999999999999e+00 -3.9629999999999823e+00 8.4100000000000019e+00 1.5688542314634546e-01 0 0 0
140 5 16 -9.4999999999999996e-01 -5.8061568742516734e+00 5.3607300290600115e+00 -1.1502541805378712e+00 0 0 0
141 5 17 4.2499999999999999e-01 -5.9528066317697022e+00 5.2959976302332681e+00 -2.1034912770609999e+00 0 0 0
148 5 16 -9.4999999999999996e-01 -5.6820108379552963e+00 8.3384374090216493e+00 -1.1499386653543802e+00 0 0 0