LAMMPS data file via write_data, version 30 Jul 2016, timestep = 120000000

4659 atoms
18 atom types
2918 bonds
17 bond types
1472 angles
30 angle types
398 dihedrals
71 dihedral types
2 impropers
1 improper types

-7.7670000000000003e+00 2.3931000000000001e+01 xlo xhi
-9.2885000000000009e+00 2.7311499999999999e+01 ylo yhi
-2.1650058681775704e+01 2.2486058681775702e+01 zlo zhi

Masses

1 1.008
2 15.9994
3 1.008
4 1.008
5 1.008
6 1.008
7 12.011
8 12.011
9 12.011
10 12.011
11 12.011
12 15.9994
13 15.9994
14 35.45
15 26.982
16 24.305
17 15.9994
18 1.008

Pair Coeffs # lj/charmm/coul/long

1 0.046 0.400014 0.046 0.400014
2 0.1521 3.15057 0.1521 3.15057
3 0.022 2.35197 0.022 2.35197
4 0.028 2.38761 0.028 2.38761
5 0.024 2.38761 0.024 2.38761
6 0.031 2.22725 0.031 2.22725
7 0.07 3.56359 0.07 3.56359
8 0.02 4.05359 0.01 3.38542
9 0.056 3.58141 0.01 3.38542
10 0.078 3.63487 0.01 3.38542
11 0.068 3.72396 0.068 3.72396
12 0.12 3.02906 0.12 2.49452
13 0.1 2.93997 0.1 2.93997
14 0.15 4.04468 0.15 4.04468
15 1.3298e-06 4.27124 1.3298e-06 4.27124
16 9.0298e-07 5.26432 9.0298e-07 5.26432
17 0.1554 3.16554 0.1554 3.16554
18 0.046 0.400014 0.046 0.400014

Bond Coeffs # harmonic

1 440 1.34
2 365 1.502
3 360.5 1.1
4 200 1.522
5 750 1.22
6 150 1.334
7 222.5 1.538
8 222.5 1.538
9 309 1.111
10 340 1.43
11 222.5 1.53
12 222.5 1.528
13 309 1.111
14 340 1.43
15 322 1.111
16 554.135 0.963
17 450 0.9572

Angle Coeffs # charmm

1 48 123.5 0 0
2 52 119.5 0 0
3 32 112.2 0 0
4 45 111.5 0 0
5 52 108 0 0
6 33 109.5 30 2.163
7 40 109.6 30 2.2651
8 40 109.6 30 2.2651
9 26.5 110.1 22.53 2.179
10 75.7 110.1 0 0
11 33.43 110.1 22.53 2.179
12 40 116 0 0
13 70 125 20 2.442
14 55 109 20 2.326
15 58.35 113.5 11.16 2.561
16 34.5 110.1 22.53 2.179
17 75.7 110.1 0 0
18 58.35 113.6 11.16 2.561
19 58 115 8 2.561
20 26.5 110.1 22.53 2.179
21 34.6 110.1 22.53 2.179
22 34.5 110.1 22.53 2.179
23 75.7 110.1 0 0
24 34.6 110.1 22.53 2.179
25 60 109.5 0 0
26 35.5 109 5.4 1.802
27 60 109.5 0 0
28 35.5 108.4 5.4 1.802
29 55 104.52 0 0
30 90 125.9 160 2.2576

Dihedral Coeffs # charmm

1 0.91 1 180 1
2 0.18 2 180 0
3 0.17 3 180 0
4 0.3 3 180 1
5 0.14 1 180 1
6 0.17 2 0 0
7 0.05 3 180 0
8 0.19 3 0 1
9 0 5 180 1
10 0.317 3 180 0
11 0.557 2 0 0
12 0.753 1 0 0
13 0.19 3 0 1
14 0 4 0 1
15 0.15 3 180 0
16 1.453 2 180 0
17 0.837 1 180 0
18 0 4 0 1
19 0.15 3 180 0
20 1.453 2 180 0
21 0.837 1 180 0
22 0 3 0 1
23 0.267 3 180 1
24 0.173 2 0 0
25 0.781 1 180 0
26 0 3 0 1
27 2.05 2 180 1
28 0.965 1 180 1
29 3.85 2 180 0
30 0.45 1 180 1
31 8.5 2 180 0
32 0.45 1 180 1
33 8.5 2 180 0
34 2.05 2 180 1
35 0.2 3 0 1
36 0.12 3 0 1
37 0.05 6 180 1
38 0 6 0 1
39 0.03 3 180 0
40 0.432 2 180 0
41 0.332 1 0 0
42 0.101 2 0 1
43 0.142 3 180 0
44 0.074 4 0 0
45 0.097 5 0 0
46 0.162 2 0 1
47 0.047 3 180 0
48 0.105 4 0 0
49 0.177 5 0 0
50 0.19 3 0 1
51 0.16 3 0 1
52 0.965 1 180 1
53 3.85 2 180 0
54 0.2 3 0 1
55 0 3 0 1
56 0.19 3 0 1
57 0.2 3 0 1
58 0.2 3 0 1
59 0.2 3 0 1
60 0 3 0 1
61 0 6 180 1
62 0 6 180 1
63 0.2 3 0 1
64 0.19 3 0 1
65 0.16 3 0 1
66 0.2 3 0 1
67 1 2 180 1
68 -0.429 4 60 1
69 0.614 3 0 0
70 -0.115 2 60 0
71 0.703 1 180 0

Improper Coeffs # harmonic

1 100 0

Atoms # full

1232 320 1 4.1699999999999998e-01 -3.1442418015797973e+00 -1.3954230030995678e+00 -1.7234982963656719e+01 -7 4 0
1177 302 2 -8.3399999999999996e-01 -2.5866915541709208e+00 -3.3348983652164854e+00 -1.3261010199874539e+01 -27 -13 0
2322 637 1 4.1699999999999998e-01 -6.9620615655835341e+00 -8.5738124352360376e+00 -1.9826290817996014e+01 54 -8 1
2908 787 2 -8.3399999999999996e-01 -7.6945872501156067e+00 -7.6804826023756503e+00 -1.2047908039992205e+01 25 -7 1
1179 302 1 4.1699999999999998e-01 -2.5495585022179252e+00 -3.6365584739119932e+00 -1.2353392102498949e+01 -27 -13 0
832 187 2 -8.3399999999999996e-01 -3.2584567339898198e+00 -3.4435773818072235e-01 -2.0136605427797676e+01 -2 -29 0
3878 1064 1 4.1699999999999998e-01 -5.0419786826677360e-02 -7.8527173602521776e+00 -1.5591576110127214e+01 2 23 1
2128 573 2 -8.3399999999999996e-01 -3.3212165982415431e-01 -3.2413380551746300e+00 -2.0542065238002913e+01 8 -25 0
1178 302 1 4.1699999999999998e-01 -2.5203000944712608e+00 -4.1982706417319307e+00 -1.3668928772920861e+01 -27 -13 0
2593 682 2 -8.3399999999999996e-01 -4.8835777458676510e+00 -6.4034769530504940e+00 -1.6286362915320627e+01 20 13 0
3339 930 1 4.1699999999999998e-01 -4.5497249296096598e-01 -4.0591186437817592e+00 -1.1109724037973338e+01 -2 -3 1
656 128 1 4.1699999999999998e-01 -1.9084567830146462e+00 -6.6362634499091806e+00 -1.4720656546302656e+01 37 9 1
3447 966 1 4.1699999999999998e-01 -1.8595143796555478e+00 -9.2809231602156039e-01 -1.4852358297620521e+01 -16 -7 0
2108 566 1 4.1699999999999998e-01 -4.4817347879376825e+00 -8.0725472751064125e+00 -1.3612812802731968e+01 -4 7 1
2595 682 1 4.1699999999999998e-01 -5.8117631636598350e+00 -6.2117777388607758e+00 -1.6152375124659834e+01 20 13 0
370 33 2 -8.3399999999999996e-01 -6.2124566869543809e+00 -5.8405998397039482e-01 -1.8101453759764098e+01 -8 16 1
2909 787 1 4.1699999999999998e-01 -6.9802927474930847e+00 -7.7508138234986896e+00 -1.1414637705406568e+01 25 -7 1
2763 738 1 4.1699999999999998e-01 -5.6211512421994385e+00 -3.8260672643503622e+00 -1.1658265807183525e+01 -1 -1 1
993 240 1 4.1699999999999998e-01 -4.0026493488140957e+00 -9.1891522313050071e+00 -1.9105616473781311e+01 -14 8 0
372 33 1 4.1699999999999998e-01 -6.6056040170731274e+00 -1.3780504256615895e+00 -1.7739195778837214e+01 -8 16 1
3879 1064 1 4.1699999999999998e-01 -1.1020904972655172e+00 -8.9027112443544301e+00 -1.5568339126869795e+01 2 23 1
3356 936 1 4.1699999999999998e-01 -4.1925440865838937e+00 -3.2654904805677631e-01 -1.2459018346310129e+01 39 19 0
621 116 1 4.1699999999999998e-01 -6.9130142063779658e+00 -3.8536456747701440e+00 -1.6866485754072883e+01 -6 -14 0
3459 970 1 4.1699999999999998e-01 -6.8275153080628277e+00 -4.1725317891233589e+00 -1.4655050439784894e+01 11 -27 1
2005 532 2 -8.3399999999999996e-01 -5.1487622783042317e+00 -3.1964104968385296e+00 -1.5529060614468715e+01 -10 1 0
1135 288 2 -8.3399999999999996e-01 -6.7707412405925655e+00 -9.1766211839089173e-01 -1.3792028414994205e+01 17 -3 0
2107 566 2 -8.3399999999999996e-01 -4.7509445898547629e+00 -8.9576306132531158e+00 -1.3858533908374341e+01 -4 7 1
929 219 1 4.1699999999999998e-01 -7.6479571672873314e+00 -7.4051719579767994e+00 -1.4985116020042534e+01 7 33 0
2007 532 1 4.1699999999999998e-01 -4.5037411355288750e+00 -2.9147005097400189e+00 -1.4880386491526167e+01 -10 1 0
2762 738 1 4.1699999999999998e-01 -5.4029084810415391e+00 -2.3473856920476566e+00 -1.1712517249888384e+01 -1 -1 1
928 219 2 -8.3399999999999996e-01 -7.4779789931748457e+00 -6.6297677602101537e+00 -1.5519957356668353e+01 7 33 0
3357 936 1 4.1699999999999998e-01 -3.7224407644862829e+00 -1.0685742570043963e+00 -1.1214815182717313e+01 39 19 0
2006 532 1 4.1699999999999998e-01 -4.8659302240952398e+00 -2.7496518325408648e+00 -1.6326921727989479e+01 -10 1 0
2594 682 1 4.1699999999999998e-01 -4.8985186409766648e+00 -7.3602363027225461e+00 -1.6261549158457274e+01 20 13 0
655 128 2 -8.3399999999999996e-01 -2.5629203934127949e+00 -6.1071297450623740e+00 -1.4264689439810599e+01 37 9 1
583 104 2 -8.3399999999999996e-01 -2.0555584699772886e+00 -8.9951969658945785e+00 -1.2684905577494279e+01 -14 -28 1
992 240 1 4.1699999999999998e-01 -2.8129943151281189e+00 -8.3697957518919370e+00 -1.8883107722417485e+01 -14 8 0
943 224 2 -8.3399999999999996e-01 -1.7505994574725801e+00 -7.0553481062102561e+00 -1.9238775512595147e+01 -20 26 1
1231 320 2 -8.3399999999999996e-01 -3.8685728727473685e+00 -1.6703715850492307e+00 -1.7797067796624944e+01 -7 4 0
1233 320 1 4.1699999999999998e-01 -3.4866672329700252e+00 -1.5895879696936692e+00 -1.8671011869518281e+01 -7 4 0
3147 866 1 4.1699999999999998e-01 -6.8883459643121521e+00 -8.9608327977447289e+00 -1.7088979783276066e+01 -48 -23 1
619 116 2 -8.3399999999999996e-01 -7.4226048732510268e+00 -3.2717689061212543e+00 -1.7430341148288079e+01 -6 -14 0
371 33 1 4.1699999999999998e-01 -5.2950068371966292e+00 -8.0996923328044623e-01 -1.8254692905900765e+01 -8 16 1
944 224 1 4.1699999999999998e-01 -2.3191572983589852e+00 -6.2902206743626197e+00 -1.9151870208934433e+01 -20 26 1
3457 970 2 -8.3399999999999996e-01 -7.5599299622020215e+00 -4.1021072540694545e+00 -1.4042839891757527e+01 11 -27 1
2320 637 2 -8.3399999999999996e-01 -6.8244689124676086e+00 -8.1679733278878341e+00 -1.8970412038734171e+01 54 -8 1
2321 637 1 4.1699999999999998e-01 -6.9417739104650140e+00 -7.2255358434679708e+00 -1.9089911229506033e+01 54 -8 1
3877 1064 2 -8.3399999999999996e-01 -9.5212601724919121e-01 -7.9951279075650490e+00 -1.5303709200400471e+01 2 23 1
585 104 1 4.1699999999999998e-01 -1.4205516064053665e+00 -8.5021061004658733e+00 -1.3204361994782630e+01 -14 -28 1
991 240 2 -8.3399999999999996e-01 -3.1860563981658139e+00 -9.2067927907942053e+00 -1.8606544059667641e+01 -14 8 0
3458 970 1 4.1699999999999998e-01 -6.9963152700260647e+00 -3.9734554884334621e+00 -1.3279974786936958e+01 11 -27 1
657 128 1 4.1699999999999998e-01 -3.2254749156241287e+00 -6.1477094566388226e+00 -1.4954298697098380e+01 37 9 1
1136 288 1 4.1699999999999998e-01 -6.9822076971794678e+00 -1.0085105475162965e+00 -1.2862954076032095e+01 17 -3 0
945 224 1 4.1699999999999998e-01 -9.6334769255457253e-01 -6.5870834434302044e+00 -1.8960944344928148e+01 -20 26 1
1137 288 1 4.1699999999999998e-01 -6.4730077645946711e+00 -1.8230116807884187e+00 -1.3881038649156212e+01 17 -3 0
2761 738 2 -8.3399999999999996e-01 -5.9268842223528742e+00 -3.0411836811723436e+00 -1.2112906071729986e+01 -1 -1 1
3445 966 2 -8.3399999999999996e-01 -2.5266039565694767e+00 -5.6039266398154552e-01 -1.5431996892784348e+01 -16 -7 0
3072 841 1 4.1699999999999998e-01 -2.4533413075736110e-01 -5.2672990169237366e-01 -1.6653983881606941e+01 -37 -16 1
3355 936 2 -8.3399999999999996e-01 -4.4868969503614293e+00 -6.4571914965111077e-01 -1.1605995452245390e+01 39 19 0
2129 573 1 4.1699999999999998e-01 -1.1498939373484456e+00 -2.8538845830580062e+00 -2.0854068617818829e+01 8 -25 0
3158 870 1 4.1699999999999998e-01 -6.5904143089504759e+00 -1.3034614676732863e+00 -2.1590381021860850e+01 15 20 0
3159 870 1 4.1699999999999998e-01 -7.3253134651058955e+00 -2.6222700795209741e+00 -2.1621619341242827e+01 15 20 0
4143 1152 1 4.1699999999999998e-01 -7.1731606571854165e+00 -4.9092686727826864e+00 -2.1629193897434448e+01 -9 -27 1
112 1 15 1.5200000000000000e+00 -6.6040000000000001e+00 -8.3650000000000002e+00 -9.7578674147186462e-02 0 0 0
113 1 16 1.3149999999999999e+00 -6.6040000000000001e+00 -5.3150000000000004e+00 1.5673373546770364e-01 0 0 0
114 1 16 1.3149999999999999e+00 -3.9619999999999966e+00 -6.8399999999999999e+00 1.5673373546770364e-01 0 0 0
119 1 17 -9.4999999999999996e-01 -5.6821800830665126e+00 -6.7672233266485113e+00 -1.1532491168005485e+00 0 0 0
120 1 18 4.2499999999999999e-01 -5.5988394932858911e+00 -6.4839334776846238e+00 -2.0750396906026758e+00 0 0 0
121 1 17 -9.4999999999999996e-01 -3.1661715832683033e+00 -8.3647945973849644e+00 -1.1536327193312665e+00 0 0 0
122 1 18 4.2499999999999999e-01 -2.9642078833980863e+00 -8.6397058375128104e+00 -2.0597173732201739e+00 0 0 0
127 1 15 1.5200000000000000e+00 -3.9629999999999823e+00 -3.7900000000000000e+00 -9.7578674147186462e-02 0 0 0
128 1 16 1.3149999999999999e+00 -6.6040000000000001e+00 -2.2649999999999997e+00 1.5673373546770364e-01 0 0 0
129 1 16 1.3149999999999999e+00 -3.9629999999999823e+00 -7.4000000000000021e-01 1.5673373546770364e-01 0 0 0
130 1 17 -9.4999999999999996e-01 -5.8063219223838951e+00 -3.7900881547175906e+00 -1.1531340792958602e+00 0 0 0
131 1 18 4.2499999999999999e-01 -6.0496082358458727e+00 -3.4513393257818707e+00 -2.0260280569488245e+00 0 0 0
132 1 17 -9.4999999999999996e-01 -3.0411106016518419e+00 -5.3869343218299797e+00 -1.1530142182848699e+00 0 0 0
133 1 18 4.2499999999999999e-01 -2.9684399970675868e+00 -5.5241775891377358e+00 -2.1074897417469423e+00 0 0 0
138 1 17 -9.4999999999999996e-01 -5.6812718059507876e+00 -8.1189439119348883e-01 -1.1535081510489142e+00 0 0 0
139 1 18 4.2499999999999999e-01 -5.6037698442013575e+00 -5.9727377987807984e-01 -2.0933534623171468e+00 0 0 0
140 1 17 -9.4999999999999996e-01 -3.0407634589841148e+00 -2.1922579092751828e+00 -1.1528780445716365e+00 0 0 0
141 1 18 4.2499999999999999e-01 -3.2432831769711772e+00 -1.8951655750869731e+00 -2.0503515297251838e+00 0 0 0
142 2 15 1.5200000000000000e+00 -1.3209999999999971e+00 -8.3650000000000002e+00 -9.7578674147186462e-02 0 0 0
143 2 16 1.3149999999999999e+00 -1.3209999999999971e+00 -5.3150000000000004e+00 1.5673373546770364e-01 0 0 0
149 2 17 -9.4999999999999996e-01 -3.9845380536518960e-01 -6.7675768835325014e+00 -1.1532357503347512e+00 0 0 0
1937 509 1 4.1699999999999998e-01 -6.2867117693430812e+00 -6.2694474047067006e+00 -3.9503171153423686e+00 33 17 0
158 2 16 1.3149999999999999e+00 -1.3209999999999971e+00 -2.2649999999999997e+00 1.5673373546770364e-01 0 0 0
160 2 17 -9.4999999999999996e-01 -5.2365835604770794e-01 -3.7897445067721485e+00 -1.1533825148986523e+00 0 0 0
161 2 18 4.2499999999999999e-01 -6.0116949918456797e-01 -3.9314763779402924e+00 -2.1073195925575021e+00 0 0 0
168 2 17 -9.4999999999999996e-01 -3.9893772692051765e-01 -8.1205051728450250e-01 -1.1536426275597051e+00 0 0 0
2089 560 2 -8.3399999999999996e-01 -1.8712687988299086e+00 -3.0728798373557495e+00 -6.0551268442966197e+00 25 8 0
1605 398 1 4.1699999999999998e-01 -6.8372650899242329e+00 -3.0968328623729988e+00 -4.3984926792053187e+00 4 35 1
2749 734 2 -8.3399999999999996e-01 -6.6874991506239141e+00 -2.9132466657968727e+00 -8.5376892625365706e+00 -13 27 1
2003 531 1 4.1699999999999998e-01 -4.7764084659462664e+00 -7.2626297870152108e+00 -6.5300460485748957e+00 -4 32 1
3360 937 1 4.1699999999999998e-01 -6.4595486247099734e+00 -8.6780426418984806e+00 -9.8639842081992377e+00 10 8 1
1637 409 1 4.1699999999999998e-01 -2.3402268142724232e+00 -7.7096270778692455e+00 -4.0490988226727964e+00 30 -6 0
4508 1274 1 4.1699999999999998e-01 -7.1550729134245099e+00 -6.6877250657616099e+00 -7.0592828813586301e+00 36 15 0
4653 1326 14 -1.0000000000000000e+00 -1.0473338402525236e+00 -5.4621431947420609e+00 -4.0428264896117341e+00 1 -7 1
388 39 2 -8.3399999999999996e-01 -2.2137987711836313e+00 -1.6773460230936150e+00 -1.0442335902687313e+01 32 6 0
4658 1331 14 -1.0000000000000000e+00 -7.7298444048589650e+00 -1.0450472312070893e+00 -6.3804722392621684e+00 3 -8 1
700 143 2 -8.3399999999999996e-01 -5.2255173894100970e+00 -3.1513148164274707e+00 -5.4715797271250857e+00 2 -11 1
1936 509 2 -8.3399999999999996e-01 -5.3517235732693349e+00 -6.2531032435207168e+00 -3.7459704388914083e+00 33 17 0
1938 509 1 4.1699999999999998e-01 -5.0067375044590374e+00 -5.5773492803207585e+00 -4.3295206743847423e+00 33 17 0
389 39 1 4.1699999999999998e-01 -1.8220913873983857e+00 -1.2917373381593880e+00 -9.6587264169766627e+00 32 6 0
150 2 18 4.2499999999999999e-01 -4.9130972459161892e-01 -6.6532037035995488e+00 -2.1096665292230092e+00 0 0 0
907 212 2 -8.3399999999999996e-01 -4.2434934668845941e+00 -6.2310923803040019e-01 -3.4962333004657147e+00 -10 -17 0
2090 560 1 4.1699999999999998e-01 -1.5694523143612997e+00 -3.6985834430825051e+00 -5.3966472282603846e+00 25 8 0
732 153 1 4.1699999999999998e-01 -1.2300895829486844e+00 -2.0864143401323467e+00 -4.4186373505750645e+00 -18 -14 1
1603 398 2 -8.3399999999999996e-01 -7.2644723763329822e+00 -3.0706823864020878e+00 -3.5423535787710883e+00 4 35 1
731 153 1 4.1699999999999998e-01 -2.3523609449291003e+00 -1.2257710409609395e+00 -3.9185338170398829e+00 -18 -14 1
340 23 2 -8.3399999999999996e-01 -2.6943638222794970e+00 -7.1905127400357660e+00 -9.8437375821054811e+00 57 11 0
1638 409 1 4.1699999999999998e-01 -3.1445186422011551e+00 -8.8311378765253572e+00 -4.5421769686315372e+00 30 -6 0
1574 388 1 4.1699999999999998e-01 -7.6084204833832292e-01 -2.0867126291574456e+00 -7.3411857569462544e+00 17 -25 0
3413 955 1 4.1699999999999998e-01 -5.4388844007856036e+00 -6.0085935004398401e+00 -1.0069720193743821e+01 12 -20 0
4560 1291 1 4.1699999999999998e-01 -7.4499258822012315e+00 -9.0220879394385811e+00 -7.7672267121745779e+00 -10 19 0
4509 1274 1 4.1699999999999998e-01 -7.0952077554299269e+00 -5.2225750756114628e+00 -7.1535073849015198e+00 36 15 0
169 2 18 4.2499999999999999e-01 -4.2553590226459459e-01 -1.1181736202634536e+00 -2.0707959461653260e+00 0 0 0
2004 531 1 4.1699999999999998e-01 -4.5282287731880011e+00 -8.5928067735050888e+00 -7.0378620228365243e+00 -4 32 1
1573 388 2 -8.3399999999999996e-01 -5.4383244585579149e-01 -1.7311257213340179e+00 -8.2029385321980364e+00 17 -25 0
3358 937 2 -8.3399999999999996e-01 -5.8271764730604625e+00 -7.9781782269172217e+00 -1.0026849547136855e+01 10 8 1
3359 937 1 4.1699999999999998e-01 -5.0409558998523902e+00 -8.5040626978953586e+00 -1.0173581482737214e+01 10 8 1
4507 1274 2 -8.3399999999999996e-01 -6.5790676418168239e+00 -5.9594737109975213e+00 -6.8267019782323359e+00 36 15 0
1636 409 2 -8.3399999999999996e-01 -2.5951621972697900e+00 -8.5963767982074035e+00 -3.7943302105335910e+00 30 -6 0
3414 955 1 4.1699999999999998e-01 -4.0403687684464433e+00 -5.7826606404087109e+00 -1.0348970037233059e+01 12 -20 0
702 143 1 4.1699999999999998e-01 -5.3870188993251205e+00 -2.3234128763797175e+00 -5.9240253924438075e+00 2 -11 1
4602 1305 1 4.1699999999999998e-01 -4.1297635830203809e+00 -4.8626949042438419e+00 -8.1405488755808832e+00 26 -3 1
3412 955 2 -8.3399999999999996e-01 -4.8534425988071845e+00 -5.2818988814146230e+00 -1.0282790660511068e+01 12 -20 0
701 143 1 4.1699999999999998e-01 -4.5599866615351328e+00 -3.5271413494454062e+00 -6.0477944044375107e+00 2 -11 1
2002 531 2 -8.3399999999999996e-01 -4.3254019109565096e+00 -8.0645223845301270e+00 -6.2658819135402801e+00 -4 32 1
4600 1305 2 -8.3399999999999996e-01 -3.5363478646895263e+00 -4.8673217608553134e+00 -7.3895390739250377e+00 26 -3 1
341 23 1 4.1699999999999998e-01 -2.7936956924712435e+00 -8.0574012244433693e+00 -9.4502248473503272e+00 57 11 0
2091 560 1 4.1699999999999998e-01 -2.3504380753455969e+00 -3.6079358192410123e+00 -6.6878263986416506e+00 25 8 0
4601 1305 1 4.1699999999999998e-01 -3.2848791333532414e+00 -5.7898866895691405e+00 -7.4327667565152886e+00 26 -3 1
342 23 1 4.1699999999999998e-01 -2.0186682247879615e+00 -7.3418627079254373e+00 -1.0504584422476984e+01 57 11 0
909 212 1 4.1699999999999998e-01 -4.6762074099767155e+00 -1.2006685407664346e+00 -4.1250235185556043e+00 -10 -17 0
2750 734 1 4.1699999999999998e-01 -6.1382200836101966e+00 -2.1915538170517017e+00 -8.8437453053396791e+00 -13 27 1
1575 388 1 4.1699999999999998e-01 -1.6178461993998550e-01 -8.9852315009625450e-01 -7.9253792082793222e+00 17 -25 0
3338 930 1 4.1699999999999998e-01 -1.1961467729678077e+00 -5.0967002281060516e+00 -1.0408419890940884e+01 -2 -3 1
730 153 2 -8.3399999999999996e-01 -1.4006703069497703e+00 -1.3180817745518123e+00 -3.8738714275356649e+00 -18 -14 1
2751 734 1 4.1699999999999998e-01 -6.9679371820257821e+00 -2.5359850712096232e+00 -7.7039048016759910e+00 -13 27 1
390 39 1 4.1699999999999998e-01 -1.9788261330394583e+00 -2.6038148451633347e+00 -1.0390604152887438e+01 32 6 0
1679 423 1 4.1699999999999998e-01 -5.4183926135464411e-02 -9.1445540289208385e+00 -4.5002319722797210e+00 71 31 0
3337 930 2 -8.3399999999999996e-01 -1.2235353514114911e+00 -4.1499048318023242e+00 -1.0546458970052221e+01 -2 -3 1
115 1 17 -9.4999999999999996e-01 -7.4434261754317923e+00 -6.9104225412304441e+00 1.0061900051171868e+00 0 0 0
3031 828 2 -8.3399999999999996e-01 9.0097089605434277e-03 -2.7491169512298175e+00 5.9638813209969115e+00 -65 6 0
117 1 17 -9.4999999999999996e-01 -4.9235198514288481e+00 -8.3652679892911888e+00 1.0067214502228978e+00 0 0 0
118 1 18 4.2499999999999999e-01 -5.0407455914496833e+00 -8.3413145955986394e+00 1.9682634453171204e+00 0 0 0
123 1 17 -9.4999999999999996e-01 -7.5665576625129773e+00 -3.7902766338722058e+00 1.0063041571618108e+00 0 0 0
475 68 2 -8.3399999999999996e-01 -5.2418188712446323e+00 -8.4260213184748523e-01 3.4605570134667438e+00 35 16 0
125 1 17 -9.4999999999999996e-01 -4.8022058276203170e+00 -5.2447635546830718e+00 1.0066142294752503e+00 0 0 0
126 1 18 4.2499999999999999e-01 -4.8608624889028311e+00 -5.1011374367023530e+00 1.9625219852016826e+00 0 0 0
134 1 17 -9.4999999999999996e-01 -7.4439790846024430e+00 -6.6949188102940660e-01 1.0064280181221434e+00 0 0 0
3298 917 2 -8.3399999999999996e-01 -2.3129563323073477e-02 -3.7772315226157449e+00 3.3795538356186938e+00 23 -16 -1
136 1 17 -9.4999999999999996e-01 -4.8021207492036435e+00 -2.3349130339098600e+00 1.0064820272667987e+00 0 0 0
137 1 18 4.2499999999999999e-01 -4.6869591131136410e+00 -2.3707067503832207e+00 1.9667106654194768e+00 0 0 0
145 2 17 -9.4999999999999996e-01 -2.1600573325190062e+00 -6.9104167607390519e+00 1.0066431822768678e+00 0 0 0
146 2 18 4.2499999999999999e-01 -2.1845576502536144e+00 -6.9470037029354943e+00 1.9738739254355302e+00 0 0 0
153 2 17 -9.4999999999999996e-01 -2.2826716855096540e+00 -3.7903309420276159e+00 1.0065194650221372e+00 0 0 0
154 2 18 4.2499999999999999e-01 -2.1795299480096402e+00 -3.7789930157243123e+00 1.9684327831725206e+00 0 0 0
164 2 17 -9.4999999999999996e-01 -2.1610993665808147e+00 -6.6942645319584138e-01 1.0066798498280285e+00 0 0 0
711 146 1 4.1699999999999998e-01 -1.9839836768050398e+00 -7.5996798598693633e+00 7.7948873920470731e+00 22 -10 0
135 1 18 4.2499999999999999e-01 -7.4802433285067282e+00 -7.6615519264678689e-01 1.9693999123372556e+00 0 0 0
477 68 1 4.1699999999999998e-01 -5.5408897741641656e+00 -1.5450439578387138e+00 4.0379076709002426e+00 35 16 0
3848 1054 1 4.1699999999999998e-01 -5.6111881754526944e+00 -7.6306454620652904e+00 4.3888093086300906e+00 -35 44 -1
3047 833 1 4.1699999999999998e-01 -1.7921538731598501e+00 -5.3248447229820215e+00 3.6883530950951382e+00 76 44 -1
4552 1289 2 -8.3399999999999996e-01 -5.2031960840067972e+00 -2.3246161287404599e+00 8.1357356398010729e+00 2 -28 0
116 1 18 4.2499999999999999e-01 -7.3046307678137286e+00 -7.1196441842627882e+00 1.9409282186869099e+00 0 0 0
3410 954 1 4.1699999999999998e-01 -1.6377979631929636e+00 -8.4775517716219095e+00 4.6346942848382255e+00 -25 13 -1
3048 833 1 4.1699999999999998e-01 -3.1769018786078576e+00 -5.2624679775252750e+00 4.1790497776561146e+00 76 44 -1
2903 785 1 4.1699999999999998e-01 -6.3740022489999770e+00 -1.4132870083229045e+00 6.4673655890903241e+00 2 9 -1
3411 954 1 4.1699999999999998e-01 -2.2093181741862145e+00 -8.4893878359832424e+00 5.8538551177505127e+00 -25 13 -1
4553 1289 1 4.1699999999999998e-01 -5.4128118075203195e+00 -2.0077138574320346e+00 9.0142535677970557e+00 2 -28 0
1978 523 2 -8.3399999999999996e-01 -6.0429162466270565e+00 -9.0517605126768252e-01 1.0560715879635730e+01 32 -15 0
3849 1054 1 4.1699999999999998e-01 -6.7887702180043981e+00 -8.1101451458557818e+00 3.6877292931748720e+00 -35 44 -1
1980 523 1 4.1699999999999998e-01 -5.3824418892877386e+00 -5.5444913653300709e-01 1.1158180381456717e+01 32 -15 0
124 1 18 4.2499999999999999e-01 -7.5230517942884232e+00 -3.9351287203228607e+00 1.9629207424247461e+00 0 0 0
1720 437 2 -8.3399999999999996e-01 -3.5926399187193532e+00 -3.5426422597606546e+00 5.6907952061195495e+00 5 8 0
863 197 1 4.1699999999999998e-01 -2.1925942747423388e-01 -7.4257971654684063e-01 7.0164868794512643e+00 11 8 0
709 146 2 -8.3399999999999996e-01 -2.7801275412377580e+00 -7.9274916621419225e+00 7.3766676518523120e+00 22 -10 0
3847 1054 2 -8.3399999999999996e-01 -5.9199427329013927e+00 -7.7593495945040054e+00 3.4920043760078876e+00 -35 44 -1
304 11 2 -8.3399999999999996e-01 -5.0793285037214915e+00 -6.6360408548594316e+00 9.5428248064361121e+00 14 27 -1
4379 1231 1 4.1699999999999998e-01 -1.6923091537252368e+00 -5.7921577968891125e+00 1.0445692807202306e+01 43 28 -1
165 2 18 4.2499999999999999e-01 -2.0565367743850684e+00 -7.0105979091862913e-01 1.9689339080291539e+00 0 0 0
3096 849 1 4.1699999999999998e-01 -7.3885020024557777e+00 -4.9091908110177105e+00 5.2313995759826000e+00 12 47 -1
841 190 2 -8.3399999999999996e-01 -3.4592036163184217e+00 -9.2612551499650788e+00 9.9314842171929669e+00 22 -43 0
1240 325 14 -1.0000000000000000e+00 -6.1200644264067945e+00 -4.0472623245834791e+00 3.6148352132813457e+00 -17 -25 0
1045 258 2 -8.3399999999999996e-01 -7.2918585428870673e+00 -7.8702284085603429e+00 8.4087770237123500e+00 76 10 -1
872 200 1 4.1699999999999998e-01 -2.6826325285867263e+00 -2.5757063918264471e+00 4.0577586287289904e+00 -70 -15 0
873 200 1 4.1699999999999998e-01 -2.7688616411345333e+00 -1.1971348815063703e+00 4.2839085476330396e+00 -70 -15 0
3046 833 2 -8.3399999999999996e-01 -2.6878265107648778e+00 -5.4669153617009494e+00 3.3820689675356057e+00 76 44 -1
1722 437 1 4.1699999999999998e-01 -4.3944786640124720e+00 -3.8387064232651742e+00 5.2599640077204768e+00 5 8 0
1457 349 1 4.1699999999999998e-01 -4.5306071681330611e+00 -7.5965881070455525e+00 6.5625543634323940e+00 36 20 -1
367 32 2 -8.3399999999999996e-01 -6.2159331922936936e+00 -4.8974858756515385e+00 7.5948987631601774e+00 2 -45 0
2041 544 2 -8.3399999999999996e-01 -1.7975677209680896e-01 -7.4318133826603736e+00 8.9590954280523185e+00 14 -36 -1
1456 349 2 -8.3399999999999996e-01 -5.3258156007337911e+00 -8.0462556948796120e+00 6.2767870560951877e+00 36 20 -1
1458 349 1 4.1699999999999998e-01 -5.0572383528851290e+00 -8.9038859883751496e+00 6.6062642624984846e+00 36 20 -1
1046 258 1 4.1699999999999998e-01 -6.7591736291132456e+00 -7.2459649745547337e+00 8.9014715546909073e+00 76 10 -1
369 32 1 4.1699999999999998e-01 -5.8833781206950748e+00 -4.0270669794692342e+00 7.8140003091624592e+00 2 -45 0
4380 1231 1 4.1699999999999998e-01 -2.1504911434005791e+00 -4.8257628359633360e+00 9.4087869805382027e+00 43 28 -1
306 11 1 4.1699999999999998e-01 -4.1777153750484146e+00 -6.3155317508281597e+00 9.5673391621639468e+00 14 27 -1
2902 785 2 -8.3399999999999996e-01 -6.0281902566816266e+00 -6.1203859945018024e-01 6.0741336189291069e+00 2 9 -1
305 11 1 4.1699999999999998e-01 -5.0995470050473752e+00 -7.0199897163699818e+00 1.0419370827886304e+01 14 27 -1
871 200 2 -8.3399999999999996e-01 -2.3053717181303854e+00 -1.7800190359951609e+00 3.6825591820106354e+00 -70 -15 0
4378 1231 2 -8.3399999999999996e-01 -2.3935761324249469e+00 -5.6613234673915231e+00 9.8074916539104571e+00 43 28 -1
971 233 1 4.1699999999999998e-01 -4.6064723673161811e-01 -4.6834373611095792e+00 7.7269478186193545e+00 -28 -10 0
1721 437 1 4.1699999999999998e-01 -3.8978891544134320e+00 -3.4891572282698515e+00 6.5963967920145912e+00 5 8 0
3300 917 1 4.1699999999999998e-01 -8.7289312990707302e-02 -2.9956866148624703e+00 3.9284384041189284e+00 23 -16 -1
4554 1289 1 4.1699999999999998e-01 -4.6480898293138004e+00 -1.6189532310411687e+00 7.8038967253943277e+00 2 -28 0
970 233 2 -8.3399999999999996e-01 -4.5980307612291238e-01 -4.3009905411990772e+00 8.6043827109158855e+00 -28 -10 0
1047 258 1 4.1699999999999998e-01 -6.7543695744939223e+00 -8.1596278119256471e+00 7.6715304180906259e+00 76 10 -1
368 32 1 4.1699999999999998e-01 -5.6109670086439554e+00 -5.4534148953594990e+00 8.0859835474740009e+00 2 -45 0
3511 988 14 -1.0000000000000000e+00 3.4229390445505992e-02 -7.2251203740924153e+00 3.6907478159353211e+00 20 12 0
862 197 2 -8.3399999999999996e-01 -1.1161662632744509e+00 -6.9214268921743027e-01 7.3469904101843504e+00 11 8 0
864 197 1 4.1699999999999998e-01 -1.3334622958803184e+00 -1.6148916815811996e+00 7.4794539826442978e+00 11 8 0
3409 954 2 -8.3399999999999996e-01 -2.1107625260212712e+00 -9.1307849871719533e+00 5.1502416494849825e+00 -25 13 -1
710 146 1 4.1699999999999998e-01 -3.2973803627116807e+00 -8.0867357099703749e+00 8.1661343541232725e+00 22 -10 0
2042 544 1 4.1699999999999998e-01 1.4907607147179647e-02 -7.5779167177023430e+00 9.8847896793054133e+00 14 -36 -1
2145 578 1 4.1699999999999998e-01 -7.4929652525022901e+00 -2.3755743656890420e+00 3.6421526679189107e+00 16 -39 0
2904 785 1 4.1699999999999998e-01 -6.7690985032048747e+00 -5.4873680261643365e-01 5.4714427226298241e+00 2 9 -1
1113 280 1 4.1699999999999998e-01 -5.5450561800286051e+00 -1.0004548305176204e+00 2.0163658533174690e+01 -26 31 -1
3157 870 2 -8.3399999999999996e-01 -6.6675570023581248e+00 -2.1130497690735304e+00 2.2040932522324681e+01 15 20 -1
358 29 2 -8.3399999999999996e-01 -2.4630736933308262e+00 -8.7363409986300358e+00 1.2685455705747927e+01 29 -6 0
2892 781 1 4.1699999999999998e-01 -4.5693647000704694e+00 -5.4273386523197580e+00 1.9560061451476066e+01 27 -21 -1
513 80 1 4.1699999999999998e-01 -1.7748759591781447e+00 -6.2740897876425707e+00 1.6045681447175234e+01 -8 61 0
2605 686 2 -8.3399999999999996e-01 -3.7292072615562484e+00 -1.9249975780745681e+00 1.7099426411863377e+01 -23 -3 0
1112 280 1 4.1699999999999998e-01 -5.4455313021271117e+00 -2.4194713143900231e+00 1.9609054888023941e+01 -26 31 -1
512 80 1 4.1699999999999998e-01 -5.2835321715089023e-01 -5.7728727278409426e+00 1.6232327137135620e+01 -8 61 0
1795 462 2 -8.3399999999999996e-01 -2.4013533063627523e+00 -1.4253608842633430e+00 1.3821976947321687e+01 47 -11 0
106 0 4 8.9999999999999997e-02 -7.0280378035353657e+00 -3.3853665645314557e+00 1.7944902184774563e+01 -21 -9 0
104 0 4 8.9999999999999997e-02 -7.5070440356561372e+00 -4.4289586660789926e+00 1.5516415844936986e+01 -21 -9 0
2312 634 1 4.1699999999999998e-01 -7.3146872825378129e-01 -7.7440568747170957e-01 1.8161143566945633e+01 18 -37 0
3069 840 1 4.1699999999999998e-01 -6.2808073057054248e-01 -8.8248251501828179e+00 1.7817595615830747e+01 -15 3 0
4479 1264 1 4.1699999999999998e-01 -2.0306460077540933e+00 -3.0107332417141812e+00 1.7325051748417224e+01 -9 3 -1
2185 592 2 -8.3399999999999996e-01 -1.5107241542294760e+00 -1.5121153462071222e+00 2.1594648210768355e+01 44 6 -1
1674 421 1 4.1699999999999998e-01 -3.8944758396627055e+00 -7.6393344433005934e+00 1.3187348485901637e+01 -25 -13 -1
2239 610 2 -8.3399999999999996e-01 -6.7522035481443305e+00 -8.7456627992718072e+00 1.1959806289314947e+01 30 -7 -1
2732 728 1 4.1699999999999998e-01 -1.4205300822470592e+00 -5.6741872104179603e+00 1.3434886829933696e+01 -10 -19 -1